
.Version 9.6.2 of ABINIT 
.(MPI version, prepared for a x86_64_linux_gnu11.3 computer) 

.Copyright (C) 1998-2021 ABINIT group . 
 ABINIT comes with ABSOLUTELY NO WARRANTY.
 It is free software, and you are welcome to redistribute it
 under certain conditions (GNU General Public License,
 see ~abinit/COPYING or http://www.gnu.org/copyleft/gpl.txt).

 ABINIT is a project of the Universite Catholique de Louvain,
 Corning Inc. and other collaborators, see ~abinit/doc/developers/contributors.txt .
 Please read https://docs.abinit.org/theory/acknowledgments for suggested
 acknowledgments of the ABINIT effort.
 For more information, see https://www.abinit.org .

.Starting date : Fri  2 Aug 2024.
- ( at 21h41 )
  
- The starting date is more than 2 years after the initial release
- of this version of ABINIT, namely Nov 2021.
- Note that the use beyond 3 years after the release will not be supported.
- Action: please, switch to a more recent version of ABINIT.

- input  file    -> final_calculation.abi
- output file    -> final_calculation.abo
- root for input  files -> final_calculationi
- root for output files -> final_calculationo


 Symmetries : space group P1 (#  1); Bravais aP (primitive triclinic)
================================================================================
 Values of the parameters that define the memory need of the present run
     intxc =       0    ionmov =       0      iscf =       7    lmnmax =       4
     lnmax =       4     mgfft =     972  mpssoang =       2    mqgrid =   48317
     natom =      17  nloc_mem =       1    nspden =       1   nspinor =       1
    nsppol =       1      nsym =       1    n1xccc =       0    ntypat =       2
    occopt =       1   xclevel =       2
-    mband =          50        mffmem =           1         mkmem =           1
       mpw =    29528732          nfft =   918330048          nkpt =           1
================================================================================
P This job should need less than                  285637.011 Mbytes of memory.
  Rough estimation (10% accuracy) of disk space for files :
_ WF disk file :  22528.637 Mbytes ; DEN or POT disk file :  -1185.696 Mbytes.
================================================================================

--------------------------------------------------------------------------------
------------- Echo of variables that govern the present computation ------------
--------------------------------------------------------------------------------
-
- outvars: echo of selected default values                                      
-   iomode0 =  0 , fftalg0 =312 , wfoptalg0 =  0
-
- outvars: echo of global parameters not present in the input file              
-  max_nthreads =   64
-
 -outvars: echo values of preprocessed input variables --------
            acell      1.2000000000E+02  1.2000000000E+02  1.2000000000E+02 Bohr
              amu      2.80855000E+01  1.00794000E+00
      chksymbreak           0
      chksymtnons           0
           diemac      2.00000000E+00
             ecut      8.00000000E+01 Hartree
-          fftalg         312
           istwfk        2
              ixc          11
           kptopt           0
P           mkmem           1
            natom          17
            nband          50
            ngfft         972     972     972
             nkpt           1
            nstep         100
             nsym           1
           ntypat           2
              occ      2.000000  2.000000  2.000000  2.000000  2.000000  2.000000
                       2.000000  2.000000  2.000000  2.000000  2.000000  2.000000
                       2.000000  2.000000  2.000000  2.000000  0.000000  0.000000
                       0.000000  0.000000  0.000000  0.000000  0.000000  0.000000
                       0.000000  0.000000  0.000000  0.000000  0.000000  0.000000
                       0.000000  0.000000  0.000000  0.000000  0.000000  0.000000
                       0.000000  0.000000  0.000000  0.000000  0.000000  0.000000
                       0.000000  0.000000  0.000000  0.000000  0.000000  0.000000
                       0.000000  0.000000
          spgroup           1
           toldfe      1.00000000E-10 Hartree
            typat      1  2  2  2  1  1  2  2  1  2  2  1  2  2  2  2  2
           xangst     -4.8334996309E-03 -3.8969714025E+00 -5.2384386000E-01
                       1.1887766092E+00 -3.9134072012E+00 -1.4252497912E+00
                       2.2399298290E-02 -5.1288182084E+00  3.2529017516E-01
                      -1.2385399054E+00 -3.9282981001E+00 -1.3688910955E+00
                       1.0446399202E-02 -1.9536987508E+00  7.9690283915E-01
                      -4.0529996905E-04  1.2999999007E-05 -5.1008846105E-01
                      -1.1904081091E+00 -1.9457889514E+00  1.6943988706E+00
                       1.2296665061E+00 -1.9529050509E+00  1.6693292725E+00
                      -1.0498699198E-02  1.9536725508E+00  7.9692673915E-01
                      -1.2088684077E+00 -3.4246997385E-03 -1.3978285933E+00
                       1.2088477077E+00  3.7072997169E-03 -1.3964712934E+00
                       5.1939996034E-03  3.8969650025E+00 -5.2384806000E-01
                      -1.9143598538E-02  5.1288157084E+00  3.2536717516E-01
                       1.2377332055E+00  3.9262507002E+00 -1.3707346953E+00
                      -1.1896927092E+00  3.9156072010E+00 -1.4234608913E+00
                       1.1910192091E+00  1.9496875511E+00  1.6935743707E+00
                      -1.2290886062E+00  1.9491198512E+00  1.6702048725E+00
            xcart     -9.1339905659E-03 -7.3642086983E+00 -9.8992143180E-01
                       2.2464622246E+00 -7.3952678567E+00 -2.6933317763E+00
                       4.2328539336E-02 -9.6920617992E+00  6.1470934478E-01
                      -2.3405012259E+00 -7.4234075775E+00 -2.5868292762E+00
                       1.9740833567E-02 -3.6919555852E+00  1.5059281205E+00
                      -7.6590594318E-04  2.4566437852E-05 -9.6392749494E-01
                      -2.2495453126E+00 -3.6770082306E+00  3.2019498254E+00
                       2.3237329313E+00 -3.6904557097E+00  3.1545751507E+00
                      -1.9839666237E-02  3.6919060744E+00  1.5059732850E+00
                      -2.2844302212E+00 -6.4717445932E-03 -2.6415132220E+00
                       2.2843911039E+00  7.0057811575E-03 -2.6389482969E+00
                       9.8152367848E-03  7.3641966041E+00 -9.8992936865E-01
                      -3.6176158435E-02  9.6920570749E+00  6.1485485368E-01
                       2.3389767840E+00  7.4195385525E+00 -2.5903131750E+00
                      -2.2481934026E+00  7.3994252539E+00 -2.6899512455E+00
                       2.2507001241E+00  3.6843755163E+00  3.2003917463E+00
                      -2.3226408587E+00  3.6833027189E+00  3.1562297948E+00
             xred     -7.6116588049E-05 -6.1368405819E-02 -8.2493452650E-03
                       1.8720518539E-02 -6.1627232139E-02 -2.2444431469E-02
                       3.5273782780E-04 -8.0767181660E-02  5.1225778731E-03
                      -1.9504176883E-02 -6.1861729812E-02 -2.1556910635E-02
                       1.6450694639E-04 -3.0766296544E-02  1.2549401004E-02
                      -6.3825495265E-06  2.0472031543E-07 -8.0327291245E-03
                      -1.8746210938E-02 -3.0641735255E-02  2.6682915211E-02
                       1.9364441094E-02 -3.0753797581E-02  2.6288126256E-02
                      -1.6533055197E-04  3.0765883953E-02  1.2549777375E-02
                      -1.9036918510E-02 -5.3931204943E-05 -2.2012610183E-02
                       1.9036592533E-02  5.8381509646E-05 -2.1991235808E-02
                       8.1793639873E-05  6.1368305034E-02 -8.2494114054E-03
                      -3.0146798696E-04  8.0767142291E-02  5.1237904473E-03
                       1.9491473200E-02  6.1829487937E-02 -2.1585943125E-02
                      -1.8734945022E-02  6.1661877116E-02 -2.2416260379E-02
                       1.8755834368E-02  3.0703129303E-02  2.6669931219E-02
                      -1.9355340489E-02  3.0694189324E-02  2.6301914957E-02
            znucl       14.00000    1.00000

================================================================================

 chkinp: Checking input parameters for consistency.

================================================================================
== DATASET  1 ==================================================================
-   mpi_nproc: 1, omp_nthreads: 64 (-1 if OMP is not activated)


--- !DatasetInfo
iteration_state: {dtset: 1, }
dimensions: {natom: 17, nkpt: 1, mband: 50, nsppol: 1, nspinor: 1, nspden: 1, mpw: 29528732, }
cutoff_energies: {ecut:  80.0, pawecutdg:  -1.0, }
electrons: {nelect:   3.20000000E+01, charge:   0.00000000E+00, occopt:   1.00000000E+00, tsmear:   1.00000000E-02, }
meta: {optdriver: 0, ionmov: 0, optcell: 0, iscf: 7, paral_kgb: 0, }
...

 Exchange-correlation functional for the present dataset will be:
  GGA: Perdew-Burke-Ernzerhof functional - ixc=11
 Citation for XC functional:
  J.P.Perdew, K.Burke, M.Ernzerhof, PRL 77, 3865 (1996)

 Real(R)+Recip(G) space primitive vectors, cartesian coordinates (Bohr,Bohr^-1):
 R(1)=120.0000000  0.0000000  0.0000000  G(1)=  0.0083333  0.0000000  0.0000000
 R(2)=  0.0000000120.0000000  0.0000000  G(2)=  0.0000000  0.0083333  0.0000000
 R(3)=  0.0000000  0.0000000120.0000000  G(3)=  0.0000000  0.0000000  0.0083333
 Unit cell volume ucvol=  1.7280000E+06 bohr^3
 Angles (23,13,12)=  9.00000000E+01  9.00000000E+01  9.00000000E+01 degrees

 getcut: wavevector=  0.0000  0.0000  0.0000  ngfft= 972 972 972
         ecut(hartree)=     80.000   => boxcut(ratio)=   2.01175

--- Pseudopotential description ------------------------------------------------
- pspini: atom type   1  psp file is /pc2/groups/hpc-prf-metdyn/epop2d10_Lukas/Pseudos/GTH/Si-q4
- pspatm: opening atomic psp file    /pc2/groups/hpc-prf-metdyn/epop2d10_Lukas/Pseudos/GTH/Si-q4
- Goedecker pseudopotential for Si
- 14.00000   4.00000     70301                znucl, zion, pspdat
   10   11    1    0      2001   0.00000      pspcod,pspxc,lmax,lloc,mmax,r2well
 rloc=   0.4400000
 cc(1:1)=  -6.2692883
 for angular momentum l =  0 r(l) =   0.4356338
   h11, h12, h13 =   8.9517415  -2.7062708   0.0000000
        h22, h23 =               3.4937806   0.0000000
             h33 =                           0.0000000
 for angular momentum l =  1 r(l) =   0.4979422
   h11, h12, h13 =   2.4312767   0.0000000   0.0000000
        h22, h23 =               0.0000000   0.0000000
             h33 =                           0.0000000
   k11, k12, k13 =   0.0187769  -0.0163976   0.0000000
        k22, k23 =               0.0194019   0.0000000
             k33 =                           0.0000000
-  Local part computed in reciprocal space.

 pspatm : COMMENT -
  the projectors are not normalized,
  so that the KB energies are not consistent with 
  definition in PRB44, 8503 (1991). 
  However, this does not influence the results obtained hereafter.
  pspatm : epsatm=   -3.54527114
         --- l  ekb(1:nproj) -->
             0    0.697335    2.950060
             1    0.000000    0.527672
 pspatm: atomic psp has been read  and splines computed

- pspini: atom type   2  psp file is /pc2/groups/hpc-prf-metdyn/epop2d10_Lukas/Pseudos/GTH/H-q1
- pspatm: opening atomic psp file    /pc2/groups/hpc-prf-metdyn/epop2d10_Lukas/Pseudos/GTH/H-q1
- Goedecker pseudopotential for H
-  1.00000   1.00000     70301                znucl, zion, pspdat
   10   11   -1    2      2001   0.00000      pspcod,pspxc,lmax,lloc,mmax,r2well
 rloc=   0.2000000
 cc(1:2)=  -4.1789004   0.7244633
-  Local part computed in reciprocal space.

 pspatm : COMMENT -
  the projectors are not normalized,
  so that the KB energies are not consistent with 
  definition in PRB44, 8503 (1991). 
  However, this does not influence the results obtained hereafter.
  pspatm : epsatm=   -0.00136065
         --- l  ekb(1:nproj) -->
 pspatm: atomic psp has been read  and splines computed

  -5.67765874E+02                                ecore*ucvol(ha*bohr**3)
--------------------------------------------------------------------------------

_setup2: Arith. and geom. avg. npw (full set) are59057463.00059057463.000

================================================================================

--- !BeginCycle
iteration_state: {dtset: 1, }
solver: {iscf: 7, nstep: 100, nline: 4, wfoptalg: 0, }
tolerances: {toldfe: 1.00E-10, }
...

     iter   Etot(hartree)      deltaE(h)  residm     vres2
 ETOT  1  -22.071977589193    -2.207E+01 2.062E-01 1.362E+06
 ETOT  2  -26.270109578801    -4.198E+00 3.377E-02 6.972E+05
 ETOT  3  -26.589930937648    -3.198E-01 6.477E-03 2.694E+05
 ETOT  4  -26.604359906389    -1.443E-02 1.997E-03 1.975E+05
 ETOT  5  -26.638710818036    -3.435E-02 2.765E-04 8.689E+04
 ETOT  6  -26.645236177877    -6.525E-03 7.794E-05 7.811E+04
 ETOT  7  -26.656256603058    -1.102E-02 8.985E-05 5.013E+04
 ETOT  8  -26.663423771520    -7.167E-03 4.470E-04 2.631E+04
 ETOT  9  -26.669086122662    -5.662E-03 1.277E-04 1.013E+04
 ETOT 10  -26.672389173606    -3.303E-03 3.614E-04 5.147E+03
 ETOT 11  -26.672528254658    -1.391E-04 1.386E-03 2.372E+02
 ETOT 12  -26.672583886196    -5.563E-05 2.080E-04 1.169E+02
 ETOT 13  -26.672579131668     4.755E-06 1.683E-04 4.170E+01
 ETOT 14  -26.672603187900    -2.406E-05 1.352E-05 1.130E+01
 ETOT 15  -26.672603892516    -7.046E-07 9.528E-06 3.564E+00
 ETOT 16  -26.672603910546    -1.803E-08 1.065E-05 1.145E+00
 ETOT 17  -26.672603897046     1.350E-08 6.836E-06 6.856E-01
 ETOT 18  -26.672603920454    -2.341E-08 9.828E-06 3.678E-01
 ETOT 19  -26.672603922287    -1.833E-09 6.668E-06 2.311E-01
 ETOT 20  -26.672603922863    -5.761E-10 5.508E-06 7.467E-02
 ETOT 21  -26.672603922699     1.641E-10 5.932E-06 1.372E-01
 ETOT 22  -26.672603922864    -1.653E-10 5.445E-06 4.583E-02
 ETOT 23  -26.672603922863     1.140E-12 4.815E-06 4.159E-02
 ETOT 24  -26.672603922881    -1.846E-11 2.228E-06 3.133E-02

 At SCF step   24, etot is converged : 
  for the second time, diff in etot=  1.846E-11 < toldfe=  1.000E-10

 Cartesian components of stress tensor (hartree/bohr^3)
  sigma(1 1)=  1.33438877E-08  sigma(3 2)= -2.06137505E-11
  sigma(2 2)=  1.23813378E-08  sigma(3 1)=  4.35401882E-11
  sigma(3 3)=  1.23630462E-08  sigma(2 1)= -5.58668888E-10


--- !ResultsGS
iteration_state: {dtset: 1, }
comment   : Summary of ground state results
lattice_vectors:
- [120.0000000,   0.0000000,   0.0000000, ]
- [  0.0000000, 120.0000000,   0.0000000, ]
- [  0.0000000,   0.0000000, 120.0000000, ]
lattice_lengths: [ 120.00000,  120.00000,  120.00000, ]
lattice_angles: [ 90.000,  90.000,  90.000, ] # degrees, (23, 13, 12)
lattice_volume:   1.7280000E+06
convergence: {deltae: -1.846E-11, res2:  3.133E-02, residm:  2.228E-06, diffor: null, }
etotal    :  -2.66726039E+01
entropy   :   0.00000000E+00
fermie    :  -2.41605313E-01
cartesian_stress_tensor: # hartree/bohr^3
- [  1.33438877E-08,  -5.58668888E-10,   4.35401882E-11, ]
- [ -5.58668888E-10,   1.23813378E-08,  -2.06137505E-11, ]
- [  4.35401882E-11,  -2.06137505E-11,   1.23630462E-08, ]
pressure_GPa:  -3.7353E-04
xred      :
- [ -7.6117E-05,  -6.1368E-02,  -8.2493E-03, Si]
- [  1.8721E-02,  -6.1627E-02,  -2.2444E-02,  H]
- [  3.5274E-04,  -8.0767E-02,   5.1226E-03,  H]
- [ -1.9504E-02,  -6.1862E-02,  -2.1557E-02,  H]
- [  1.6451E-04,  -3.0766E-02,   1.2549E-02, Si]
- [ -6.3825E-06,   2.0472E-07,  -8.0327E-03, Si]
- [ -1.8746E-02,  -3.0642E-02,   2.6683E-02,  H]
- [  1.9364E-02,  -3.0754E-02,   2.6288E-02,  H]
- [ -1.6533E-04,   3.0766E-02,   1.2550E-02, Si]
- [ -1.9037E-02,  -5.3931E-05,  -2.2013E-02,  H]
- [  1.9037E-02,   5.8382E-05,  -2.1991E-02,  H]
- [  8.1794E-05,   6.1368E-02,  -8.2494E-03, Si]
- [ -3.0147E-04,   8.0767E-02,   5.1238E-03,  H]
- [  1.9491E-02,   6.1829E-02,  -2.1586E-02,  H]
- [ -1.8735E-02,   6.1662E-02,  -2.2416E-02,  H]
- [  1.8756E-02,   3.0703E-02,   2.6670E-02,  H]
- [ -1.9355E-02,   3.0694E-02,   2.6302E-02,  H]
cartesian_forces: # hartree/bohr
- [ -1.07511612E-04,  -8.48823058E-05,  -1.58350379E-04, ]
- [ -8.89669153E-04,   7.96513551E-05,   7.23344027E-04, ]
- [ -1.79260719E-05,   9.29269250E-04,  -5.64465751E-04, ]
- [  9.13900740E-04,   3.57947068E-05,   5.89156265E-04, ]
- [ -1.60701541E-05,  -5.13348410E-05,   2.12340915E-04, ]
- [  9.73009243E-05,   1.87447651E-06,  -2.02743955E-04, ]
- [  8.57181057E-04,  -1.01529432E-04,  -6.70893673E-04, ]
- [ -8.68309141E-04,   1.27193683E-04,  -6.60349059E-04, ]
- [ -7.02341780E-06,   6.22300105E-05,   2.11945183E-04, ]
- [  8.44828083E-04,  -5.59660402E-05,   6.67889795E-04, ]
- [ -8.19116530E-04,   4.96539040E-05,   5.88652143E-04, ]
- [ -5.04199994E-06,   8.48310327E-05,  -1.56637664E-04, ]
- [  3.66981732E-05,  -9.28732704E-04,  -5.62460650E-04, ]
- [ -9.15641627E-04,  -4.13667862E-05,   6.14311488E-04, ]
- [  8.89528799E-04,  -7.96651495E-05,   6.98027223E-04, ]
- [ -8.59455683E-04,  -2.46149060E-05,  -6.70769820E-04, ]
- [  8.66327613E-04,  -2.40625360E-06,  -6.58996086E-04, ]
force_length_stats: {min:   1.78205173E-04, max:   1.14938337E-03, mean:   8.32904952E-04, }
...

 Integrated electronic density in atomic spheres:
 ------------------------------------------------
 Atom  Sphere_radius  Integrated_density
    1        2.00000          1.85782183
    2        2.00000          1.42131545
    3        2.00000          1.42053593
    4        2.00000          1.42187580
    5        2.00000          1.83261300
    6        2.00000          1.82717450
    7        2.00000          1.41665544
    8        2.00000          1.41804065
    9        2.00000          1.83253532
   10        2.00000          1.41808396
   11        2.00000          1.41835845
   12        2.00000          1.85737478
   13        2.00000          1.42036054
   14        2.00000          1.42106906
   15        2.00000          1.42142448
   16        2.00000          1.41670831
   17        2.00000          1.41750012
================================================================================

 ----iterations are completed or convergence reached----

 Mean square residual over all n,k,spin=   50.999E-09; max=  22.284E-07
 reduced coordinates (array xred) for   17 atoms
      -0.000076116588     -0.061368405819     -0.008249345265
       0.018720518539     -0.061627232139     -0.022444431469
       0.000352737828     -0.080767181660      0.005122577873
      -0.019504176883     -0.061861729812     -0.021556910635
       0.000164506946     -0.030766296544      0.012549401004
      -0.000006382550      0.000000204720     -0.008032729124
      -0.018746210938     -0.030641735255      0.026682915211
       0.019364441094     -0.030753797581      0.026288126256
      -0.000165330552      0.030765883953      0.012549777375
      -0.019036918510     -0.000053931205     -0.022012610183
       0.019036592533      0.000058381510     -0.021991235808
       0.000081793640      0.061368305034     -0.008249411405
      -0.000301467987      0.080767142291      0.005123790447
       0.019491473200      0.061829487937     -0.021585943125
      -0.018734945022      0.061661877116     -0.022416260379
       0.018755834368      0.030703129303      0.026669931219
      -0.019355340489      0.030694189324      0.026301914957
 rms dE/dt=  6.4098E-02; max dE/dt=  1.1145E-01; dE/dt below (all hartree)
    1       0.012901342244      0.010185830577      0.019001874917
    2       0.106760247217     -0.009558208738     -0.086801453805
    3       0.002151077448     -0.111512356124      0.067735719594
    4      -0.109668140010     -0.004295410935     -0.070698922338
    5       0.001928367315      0.006160134795     -0.025481080322
    6      -0.011676162091     -0.000224983302      0.024329104053
    7      -0.102861777989      0.012183485722      0.080507070258
    8       0.104197045778     -0.015263288076      0.079241716552
    9       0.000842758959     -0.007467647384     -0.025433592468
   10      -0.101379421145      0.006715878705     -0.080146945945
   11       0.098293932442     -0.005958514603     -0.070638427765
   12       0.000604988815     -0.010179770051      0.018796349139
   13      -0.004403831959      0.111447878408      0.067495107468
   14       0.109876944004      0.004963968221     -0.073717549124
   15      -0.106743507005      0.009559771822     -0.083763437302
   16       0.103134630752      0.002953742597      0.080492207867
   17      -0.103959364789      0.000288704311      0.079079359734

 cartesian coordinates (angstrom) at end:
    1     -0.00483349963095    -3.89697140245579    -0.52384386000312
    2      1.18877660923372    -3.91340720120087    -1.42524979117836
    3      0.02239929828975    -5.12881820840099     0.32529017516322
    4     -1.23853990543416    -3.92829810006391    -1.36889109548150
    5      0.01044639920239    -1.95369875082986     0.79690283915433
    6     -0.00040529996905     0.00001299999901    -0.51008846105338
    7     -1.19040810910915    -1.94578895143380     1.69439887062811
    8      1.22966650611167    -1.95290505089047     1.66932927254224
    9     -0.01049869919840     1.95367255083187     0.79692673915251
   10     -1.20886840769966    -0.00342469973851    -1.39782859327204
   11      1.20884770770124     0.00370729971694    -1.39647129337567
   12      0.00519399960342     3.89696500245628    -0.52384806000280
   13     -0.01914359853833     5.12881570840118     0.32536717515734
   14      1.23773320549575     3.92625070022024    -1.37073469534073
   15     -1.18969270916377     3.91560720103290    -1.42346089131495
   16      1.19101920906249     1.94968755113613     1.69357437069106
   17     -1.22908860615579     1.94911985117948     1.67020487247538

 cartesian forces (hartree/bohr) at end:
    1     -0.00010751161184    -0.00008488230582    -0.00015835037896
    2     -0.00088966915328     0.00007965135515     0.00072334402706
    3     -0.00001792607187     0.00092926925002    -0.00056446575127
    4      0.00091390074027     0.00003579470678     0.00058915626483
    5     -0.00001607015410    -0.00005133484096     0.00021234091470
    6      0.00009730092428     0.00000187447651    -0.00020274395509
    7      0.00085718105676    -0.00010152943202    -0.00067089367346
    8     -0.00086830914129     0.00012719368296    -0.00066034905925
    9     -0.00000702341780     0.00006223001053     0.00021194518258
   10      0.00084482808306    -0.00005596604021     0.00066788979489
   11     -0.00081911653016     0.00004965390402     0.00058865214339
   12     -0.00000504199994     0.00008483103275    -0.00015663766415
   13      0.00003669817318    -0.00092873270441    -0.00056246065022
   14     -0.00091564162651    -0.00004136678618     0.00061431148805
   15      0.00088952879856    -0.00007966514952     0.00069802722287
   16     -0.00085945568274    -0.00002461490598    -0.00067076982021
   17      0.00086632761343    -0.00000240625360    -0.00065899608577
 frms,max,avg= 5.3414770E-04 9.2926925E-04   4.265E-10  3.843E-10  1.421E-09 h/b

 cartesian forces (eV/Angstrom) at end:
    1     -0.00552846889817    -0.00436482329377    -0.00814270319341
    2     -0.04574862342033     0.00409583701765     0.03719584226921
    3     -0.00092179560067     0.04778494209723    -0.02902599353140
    4      0.04699466161755     0.00184063767422     0.03029563068032
    5     -0.00082636047987    -0.00263974343603     0.01091900793417
    6      0.00500341427715     0.00009638944931    -0.01042551247066
    7      0.04407801846794    -0.00522085286929    -0.03449873687208
    8     -0.04465024753384     0.00654056160265    -0.03395651105356
    9     -0.00036115863406     0.00319999553387     0.01089865857198
   10      0.04344280307388    -0.00287788925652     0.03434427123827
   11     -0.04212066197566     0.00255330619027     0.03026970771559
   12     -0.00025927003937     0.00436218672654    -0.00805463186395
   13      0.00188709578041    -0.04775735181479    -0.02892288709869
   14     -0.04708418158005    -0.00212716549307     0.03158916415811
   15      0.04574140609104    -0.00409654635297     0.03589399996433
   16     -0.04419498442903    -0.00126574925083    -0.03449236808235
   17      0.04454835328307    -0.00012373452447    -0.03388693836589
 frms,max,avg= 2.7466977E-02 4.7784942E-02   2.193E-08  1.976E-08  7.309E-08 e/A
 length scales=120.000000000000120.000000000000120.000000000000 bohr
              = 63.501265030800 63.501265030800 63.501265030800 angstroms
 prteigrs : about to open file final_calculationo_EIG
 Fermi (or HOMO) energy (hartree) =  -0.24161   Average Vxc (hartree)=  -0.00050
 Eigenvalues (hartree) for nkpt=   1  k points:
 kpt#   1, nband= 50, wtk=  1.00000, kpt=  0.0000  0.0000  0.0000 (reduced coord)
  -0.53358   -0.51321   -0.48313   -0.45040   -0.42987   -0.33856   -0.32614   -0.31965
  -0.31584   -0.31221   -0.30250   -0.29883   -0.28271   -0.28270   -0.27146   -0.24161
  -0.06199   -0.03622   -0.03587   -0.03544   -0.03098   -0.02707   -0.02081   -0.01538
  -0.01258   -0.00715   -0.00160   -0.00157    0.00020    0.00043    0.00150    0.00150
   0.00151    0.00153    0.00173    0.00176    0.00279    0.00286    0.00286    0.00287
   0.00287    0.00287    0.00288    0.00288    0.00290    0.00295    0.00329    0.00339
   0.00406    0.00424

--- !EnergyTerms
iteration_state     : {dtset: 1, }
comment             : Components of total free energy in Hartree
kinetic             :  1.44505220556170E+01
hartree             :  7.95937763333849E+01
xc                  : -1.00927496963414E+01
Ewald energy        :  6.13736111808016E+01
psp_core            : -3.28568213989925E-04
local_psp           : -1.75882237613109E+02
non_local_psp       :  3.88480238497940E+00
total_energy        : -2.66726039228812E+01
total_energy_eV     : -7.25798463891263E+02
band_energy         : -1.14048116601324E+01
...


 Cartesian components of stress tensor (hartree/bohr^3)
  sigma(1 1)=  1.33438877E-08  sigma(3 2)= -2.06137505E-11
  sigma(2 2)=  1.23813378E-08  sigma(3 1)=  4.35401882E-11
  sigma(3 3)=  1.23630462E-08  sigma(2 1)= -5.58668888E-10

-Cartesian components of stress tensor (GPa)         [Pressure= -3.7353E-04 GPa]
- sigma(1 1)=  3.92590663E-04  sigma(3 2)= -6.06477377E-07
- sigma(2 2)=  3.64271474E-04  sigma(3 1)=  1.28099635E-06
- sigma(3 3)=  3.63733317E-04  sigma(2 1)= -1.64366034E-05

== END DATASET(S) ==============================================================
================================================================================
  
 -outvars: echo values of variables after computation  --------
            acell      1.2000000000E+02  1.2000000000E+02  1.2000000000E+02 Bohr
              amu      2.80855000E+01  1.00794000E+00
      chksymbreak           0
      chksymtnons           0
           diemac      2.00000000E+00
             ecut      8.00000000E+01 Hartree
           etotal     -2.6672603923E+01
            fcart     -1.0751161184E-04 -8.4882305820E-05 -1.5835037896E-04
                      -8.8966915328E-04  7.9651355146E-05  7.2334402706E-04
                      -1.7926071874E-05  9.2926925002E-04 -5.6446575127E-04
                       9.1390074027E-04  3.5794706785E-05  5.8915626483E-04
                      -1.6070154105E-05 -5.1334840964E-05  2.1234091470E-04
                       9.7300924283E-05  1.8744765053E-06 -2.0274395509E-04
                       8.5718105676E-04 -1.0152943202E-04 -6.7089367346E-04
                      -8.6830914129E-04  1.2719368296E-04 -6.6034905925E-04
                      -7.0234178023E-06  6.2230010529E-05  2.1194518258E-04
                       8.4482808306E-04 -5.5966040214E-05  6.6788979489E-04
                      -8.1911653016E-04  4.9653904020E-05  5.8865214339E-04
                      -5.0419999370E-06  8.4831032746E-05 -1.5663766415E-04
                       3.6698173182E-05 -9.2873270441E-04 -5.6246065022E-04
                      -9.1564162651E-04 -4.1366786181E-05  6.1431148805E-04
                       8.8952879856E-04 -7.9665149523E-05  6.9802722287E-04
                      -8.5945568274E-04 -2.4614905981E-05 -6.7076982021E-04
                       8.6632761343E-04 -2.4062535960E-06 -6.5899608577E-04
-          fftalg         312
           istwfk        2
              ixc          11
           kptopt           0
P           mkmem           1
            natom          17
            nband          50
            ngfft         972     972     972
             nkpt           1
            nstep         100
             nsym           1
           ntypat           2
              occ      2.000000  2.000000  2.000000  2.000000  2.000000  2.000000
                       2.000000  2.000000  2.000000  2.000000  2.000000  2.000000
                       2.000000  2.000000  2.000000  2.000000  0.000000  0.000000
                       0.000000  0.000000  0.000000  0.000000  0.000000  0.000000
                       0.000000  0.000000  0.000000  0.000000  0.000000  0.000000
                       0.000000  0.000000  0.000000  0.000000  0.000000  0.000000
                       0.000000  0.000000  0.000000  0.000000  0.000000  0.000000
                       0.000000  0.000000  0.000000  0.000000  0.000000  0.000000
                       0.000000  0.000000
          spgroup           1
           strten      1.3343887658E-08  1.2381337830E-08  1.2363046245E-08
                      -2.0613750512E-11  4.3540188192E-11 -5.5866888841E-10
           toldfe      1.00000000E-10 Hartree
            typat      1  2  2  2  1  1  2  2  1  2  2  1  2  2  2  2  2
           xangst     -4.8334996309E-03 -3.8969714025E+00 -5.2384386000E-01
                       1.1887766092E+00 -3.9134072012E+00 -1.4252497912E+00
                       2.2399298290E-02 -5.1288182084E+00  3.2529017516E-01
                      -1.2385399054E+00 -3.9282981001E+00 -1.3688910955E+00
                       1.0446399202E-02 -1.9536987508E+00  7.9690283915E-01
                      -4.0529996905E-04  1.2999999007E-05 -5.1008846105E-01
                      -1.1904081091E+00 -1.9457889514E+00  1.6943988706E+00
                       1.2296665061E+00 -1.9529050509E+00  1.6693292725E+00
                      -1.0498699198E-02  1.9536725508E+00  7.9692673915E-01
                      -1.2088684077E+00 -3.4246997385E-03 -1.3978285933E+00
                       1.2088477077E+00  3.7072997169E-03 -1.3964712934E+00
                       5.1939996034E-03  3.8969650025E+00 -5.2384806000E-01
                      -1.9143598538E-02  5.1288157084E+00  3.2536717516E-01
                       1.2377332055E+00  3.9262507002E+00 -1.3707346953E+00
                      -1.1896927092E+00  3.9156072010E+00 -1.4234608913E+00
                       1.1910192091E+00  1.9496875511E+00  1.6935743707E+00
                      -1.2290886062E+00  1.9491198512E+00  1.6702048725E+00
            xcart     -9.1339905659E-03 -7.3642086983E+00 -9.8992143180E-01
                       2.2464622246E+00 -7.3952678567E+00 -2.6933317763E+00
                       4.2328539336E-02 -9.6920617992E+00  6.1470934478E-01
                      -2.3405012259E+00 -7.4234075775E+00 -2.5868292762E+00
                       1.9740833567E-02 -3.6919555852E+00  1.5059281205E+00
                      -7.6590594318E-04  2.4566437852E-05 -9.6392749494E-01
                      -2.2495453126E+00 -3.6770082306E+00  3.2019498254E+00
                       2.3237329313E+00 -3.6904557097E+00  3.1545751507E+00
                      -1.9839666237E-02  3.6919060744E+00  1.5059732850E+00
                      -2.2844302212E+00 -6.4717445932E-03 -2.6415132220E+00
                       2.2843911039E+00  7.0057811575E-03 -2.6389482969E+00
                       9.8152367848E-03  7.3641966041E+00 -9.8992936865E-01
                      -3.6176158435E-02  9.6920570749E+00  6.1485485368E-01
                       2.3389767840E+00  7.4195385525E+00 -2.5903131750E+00
                      -2.2481934026E+00  7.3994252539E+00 -2.6899512455E+00
                       2.2507001241E+00  3.6843755163E+00  3.2003917463E+00
                      -2.3226408587E+00  3.6833027189E+00  3.1562297948E+00
             xred     -7.6116588049E-05 -6.1368405819E-02 -8.2493452650E-03
                       1.8720518539E-02 -6.1627232139E-02 -2.2444431469E-02
                       3.5273782780E-04 -8.0767181660E-02  5.1225778731E-03
                      -1.9504176883E-02 -6.1861729812E-02 -2.1556910635E-02
                       1.6450694639E-04 -3.0766296544E-02  1.2549401004E-02
                      -6.3825495265E-06  2.0472031543E-07 -8.0327291245E-03
                      -1.8746210938E-02 -3.0641735255E-02  2.6682915211E-02
                       1.9364441094E-02 -3.0753797581E-02  2.6288126256E-02
                      -1.6533055197E-04  3.0765883953E-02  1.2549777375E-02
                      -1.9036918510E-02 -5.3931204943E-05 -2.2012610183E-02
                       1.9036592533E-02  5.8381509646E-05 -2.1991235808E-02
                       8.1793639873E-05  6.1368305034E-02 -8.2494114054E-03
                      -3.0146798696E-04  8.0767142291E-02  5.1237904473E-03
                       1.9491473200E-02  6.1829487937E-02 -2.1585943125E-02
                      -1.8734945022E-02  6.1661877116E-02 -2.2416260379E-02
                       1.8755834368E-02  3.0703129303E-02  2.6669931219E-02
                      -1.9355340489E-02  3.0694189324E-02  2.6301914957E-02
            znucl       14.00000    1.00000

================================================================================


- Timing analysis has been suppressed with timopt=0



================================================================================

 Suggested references for the acknowledgment of ABINIT usage.

 The users of ABINIT have little formal obligations with respect to the ABINIT group
 (those specified in the GNU General Public License, http://www.gnu.org/copyleft/gpl.txt).
 However, it is common practice in the scientific literature,
 to acknowledge the efforts of people that have made the research possible.
 In this spirit, please find below suggested citations of work written by ABINIT developers,
 corresponding to implementations inside of ABINIT that you have used in the present run.
 Note also that it will be of great value to readers of publications presenting these results,
 to read papers enabling them to understand the theoretical formalism and details
 of the ABINIT implementation.
 For information on why they are suggested, see also https://docs.abinit.org/theory/acknowledgments.
-
- [1] The Abinit project: Impact, environment and recent developments.
- Computer Phys. Comm. 248, 107042 (2020).
- X.Gonze, B. Amadon, G. Antonius, F.Arnardi, L.Baguet, J.-M.Beuken,
- J.Bieder, F.Bottin, J.Bouchet, E.Bousquet, N.Brouwer, F.Bruneval,
- G.Brunin, T.Cavignac, J.-B. Charraud, Wei Chen, M.Cote, S.Cottenier,
- J.Denier, G.Geneste, Ph.Ghosez, M.Giantomassi, Y.Gillet, O.Gingras,
- D.R.Hamann, G.Hautier, Xu He, N.Helbig, N.Holzwarth, Y.Jia, F.Jollet,
- W.Lafargue-Dit-Hauret, K.Lejaeghere, M.A.L.Marques, A.Martin, C.Martins,
- H.P.C. Miranda, F.Naccarato, K. Persson, G.Petretto, V.Planes, Y.Pouillon,
- S.Prokhorenko, F.Ricci, G.-M.Rignanese, A.H.Romero, M.M.Schmitt, M.Torrent,
- M.J.van Setten, B.Van Troeye, M.J.Verstraete, G.Zerah and J.W.Zwanzig
- Comment: the fifth generic paper describing the ABINIT project.
- Note that a version of this paper, that is not formatted for Computer Phys. Comm. 
- is available at https://www.abinit.org/sites/default/files/ABINIT20.pdf .
- The licence allows the authors to put it on the Web.
- DOI and bibtex: see https://docs.abinit.org/theory/bibliography/#gonze2020
-
- [2] ABINIT: Overview, and focus on selected capabilities
- J. Chem. Phys. 152, 124102 (2020).
- A. Romero, D.C. Allan, B. Amadon, G. Antonius, T. Applencourt, L.Baguet,
- J.Bieder, F.Bottin, J.Bouchet, E.Bousquet, F.Bruneval,
- G.Brunin, D.Caliste, M.Cote,
- J.Denier, C. Dreyer, Ph.Ghosez, M.Giantomassi, Y.Gillet, O.Gingras,
- D.R.Hamann, G.Hautier, F.Jollet, G. Jomard,
- A.Martin, 
- H.P.C. Miranda, F.Naccarato, G.Petretto, N.A. Pike, V.Planes,
- S.Prokhorenko, T. Rangel, F.Ricci, G.-M.Rignanese, M.Royo, M.Stengel, M.Torrent,
- M.J.van Setten, B.Van Troeye, M.J.Verstraete, J.Wiktor, J.W.Zwanziger, and X.Gonze.
- Comment: a global overview of ABINIT, with focus on selected capabilities .
- Note that a version of this paper, that is not formatted for J. Chem. Phys 
- is available at https://www.abinit.org/sites/default/files/ABINIT20_JPC.pdf .
- The licence allows the authors to put it on the Web.
- DOI and bibtex: see https://docs.abinit.org/theory/bibliography/#romero2020
-
- [3] Recent developments in the ABINIT software package.
- Computer Phys. Comm. 205, 106 (2016).
- X.Gonze, F.Jollet, F.Abreu Araujo, D.Adams, B.Amadon, T.Applencourt,
- C.Audouze, J.-M.Beuken, J.Bieder, A.Bokhanchuk, E.Bousquet, F.Bruneval
- D.Caliste, M.Cote, F.Dahm, F.Da Pieve, M.Delaveau, M.Di Gennaro,
- B.Dorado, C.Espejo, G.Geneste, L.Genovese, A.Gerossier, M.Giantomassi,
- Y.Gillet, D.R.Hamann, L.He, G.Jomard, J.Laflamme Janssen, S.Le Roux,
- A.Levitt, A.Lherbier, F.Liu, I.Lukacevic, A.Martin, C.Martins,
- M.J.T.Oliveira, S.Ponce, Y.Pouillon, T.Rangel, G.-M.Rignanese,
- A.H.Romero, B.Rousseau, O.Rubel, A.A.Shukri, M.Stankovski, M.Torrent,
- M.J.Van Setten, B.Van Troeye, M.J.Verstraete, D.Waroquier, J.Wiktor,
- B.Xu, A.Zhou, J.W.Zwanziger.
- Comment: the fourth generic paper describing the ABINIT project.
- Note that a version of this paper, that is not formatted for Computer Phys. Comm. 
- is available at https://www.abinit.org/sites/default/files/ABINIT16.pdf .
- The licence allows the authors to put it on the Web.
- DOI and bibtex: see https://docs.abinit.org/theory/bibliography/#gonze2016
-
- And optionally:
-
- [4] ABINIT: First-principles approach of materials and nanosystem properties.
- Computer Phys. Comm. 180, 2582-2615 (2009).
- X. Gonze, B. Amadon, P.-M. Anglade, J.-M. Beuken, F. Bottin, P. Boulanger, F. Bruneval,
- D. Caliste, R. Caracas, M. Cote, T. Deutsch, L. Genovese, Ph. Ghosez, M. Giantomassi
- S. Goedecker, D.R. Hamann, P. Hermet, F. Jollet, G. Jomard, S. Leroux, M. Mancini, S. Mazevet,
- M.J.T. Oliveira, G. Onida, Y. Pouillon, T. Rangel, G.-M. Rignanese, D. Sangalli, R. Shaltaf,
- M. Torrent, M.J. Verstraete, G. Zerah, J.W. Zwanziger
- Comment: the third generic paper describing the ABINIT project.
- Note that a version of this paper, that is not formatted for Computer Phys. Comm. 
- is available at https://www.abinit.org/sites/default/files/ABINIT_CPC_v10.pdf .
- The licence allows the authors to put it on the Web.
- DOI and bibtex: see https://docs.abinit.org/theory/bibliography/#gonze2009
-
- Proc.   0 individual time (sec): cpu=     926573.9  wall=      50916.5

================================================================================

 Calculation completed.
.Delivered   0 WARNINGs and   6 COMMENTs to log file.
+Overall time at end (sec) : cpu=     926573.9  wall=      50916.5
