
.Version 9.6.2 of ABINIT 
.(MPI version, prepared for a x86_64_linux_gnu11.3 computer) 

.Copyright (C) 1998-2021 ABINIT group . 
 ABINIT comes with ABSOLUTELY NO WARRANTY.
 It is free software, and you are welcome to redistribute it
 under certain conditions (GNU General Public License,
 see ~abinit/COPYING or http://www.gnu.org/copyleft/gpl.txt).

 ABINIT is a project of the Universite Catholique de Louvain,
 Corning Inc. and other collaborators, see ~abinit/doc/developers/contributors.txt .
 Please read https://docs.abinit.org/theory/acknowledgments for suggested
 acknowledgments of the ABINIT effort.
 For more information, see https://www.abinit.org .

.Starting date : Sat  3 Aug 2024.
- ( at 05h04 )
  
- The starting date is more than 2 years after the initial release
- of this version of ABINIT, namely Nov 2021.
- Note that the use beyond 3 years after the release will not be supported.
- Action: please, switch to a more recent version of ABINIT.

- input  file    -> final_calculation.abi
- output file    -> final_calculation.abo
- root for input  files -> final_calculationi
- root for output files -> final_calculationo


 Symmetries : space group P4 m m (# 99); Bravais tP (primitive tetrag.)
================================================================================
 Values of the parameters that define the memory need of the present run
     intxc =       0    ionmov =       0      iscf =       7    lmnmax =       2
     lnmax =       2     mgfft =     972  mpssoang =       2    mqgrid =   48317
     natom =       2  nloc_mem =       1    nspden =       1   nspinor =       1
    nsppol =       1      nsym =       8    n1xccc =       0    ntypat =       2
    occopt =       1   xclevel =       2
-    mband =          50        mffmem =           1         mkmem =           1
       mpw =    29528732          nfft =   918330048          nkpt =           1
================================================================================
P This job should need less than                  303153.079 Mbytes of memory.
  Rough estimation (10% accuracy) of disk space for files :
_ WF disk file :  22528.637 Mbytes ; DEN or POT disk file :  -1185.696 Mbytes.
================================================================================

--------------------------------------------------------------------------------
------------- Echo of variables that govern the present computation ------------
--------------------------------------------------------------------------------
-
- outvars: echo of selected default values                                      
-   iomode0 =  0 , fftalg0 =312 , wfoptalg0 =  0
-
- outvars: echo of global parameters not present in the input file              
-  max_nthreads =   64
-
 -outvars: echo values of preprocessed input variables --------
            acell      1.2000000000E+02  1.2000000000E+02  1.2000000000E+02 Bohr
              amu      1.08110000E+01  1.89984032E+01
      chksymbreak           0
      chksymtnons           0
           diemac      2.00000000E+00
             ecut      8.00000000E+01 Hartree
-          fftalg         312
           istwfk        2
              ixc          11
           kptopt           0
P           mkmem           1
            natom           2
            nband          50
            ngfft         972     972     972
             nkpt           1
            nstep         100
             nsym           8
           ntypat           2
              occ      2.000000  2.000000  2.000000  2.000000  2.000000  0.000000
                       0.000000  0.000000  0.000000  0.000000  0.000000  0.000000
                       0.000000  0.000000  0.000000  0.000000  0.000000  0.000000
                       0.000000  0.000000  0.000000  0.000000  0.000000  0.000000
                       0.000000  0.000000  0.000000  0.000000  0.000000  0.000000
                       0.000000  0.000000  0.000000  0.000000  0.000000  0.000000
                       0.000000  0.000000  0.000000  0.000000  0.000000  0.000000
                       0.000000  0.000000  0.000000  0.000000  0.000000  0.000000
                       0.000000  0.000000
          spgroup          99
           symrel      1  0  0   0  1  0   0  0  1       1  0  0   0 -1  0   0  0  1
                      -1  0  0   0 -1  0   0  0  1      -1  0  0   0  1  0   0  0  1
                       0  1  0   1  0  0   0  0  1       0  1  0  -1  0  0   0  0  1
                       0 -1  0  -1  0  0   0  0  1       0 -1  0   1  0  0   0  0  1
           toldfe      1.00000000E-10 Hartree
            typat      1  2
           xangst      0.0000000000E+00  0.0000000000E+00  0.0000000000E+00
                       0.0000000000E+00  0.0000000000E+00  1.2625999036E+00
            xcart      0.0000000000E+00  0.0000000000E+00  0.0000000000E+00
                       0.0000000000E+00  0.0000000000E+00  2.3859680332E+00
             xred      0.0000000000E+00  0.0000000000E+00  0.0000000000E+00
                       0.0000000000E+00  0.0000000000E+00  1.9883066943E-02
            znucl        5.00000    9.00000

================================================================================

 chkinp: Checking input parameters for consistency.

================================================================================
== DATASET  1 ==================================================================
-   mpi_nproc: 1, omp_nthreads: 64 (-1 if OMP is not activated)


--- !DatasetInfo
iteration_state: {dtset: 1, }
dimensions: {natom: 2, nkpt: 1, mband: 50, nsppol: 1, nspinor: 1, nspden: 1, mpw: 29528732, }
cutoff_energies: {ecut:  80.0, pawecutdg:  -1.0, }
electrons: {nelect:   1.00000000E+01, charge:   0.00000000E+00, occopt:   1.00000000E+00, tsmear:   1.00000000E-02, }
meta: {optdriver: 0, ionmov: 0, optcell: 0, iscf: 7, paral_kgb: 0, }
...

 Exchange-correlation functional for the present dataset will be:
  GGA: Perdew-Burke-Ernzerhof functional - ixc=11
 Citation for XC functional:
  J.P.Perdew, K.Burke, M.Ernzerhof, PRL 77, 3865 (1996)

 Real(R)+Recip(G) space primitive vectors, cartesian coordinates (Bohr,Bohr^-1):
 R(1)=120.0000000  0.0000000  0.0000000  G(1)=  0.0083333  0.0000000  0.0000000
 R(2)=  0.0000000120.0000000  0.0000000  G(2)=  0.0000000  0.0083333  0.0000000
 R(3)=  0.0000000  0.0000000120.0000000  G(3)=  0.0000000  0.0000000  0.0083333
 Unit cell volume ucvol=  1.7280000E+06 bohr^3
 Angles (23,13,12)=  9.00000000E+01  9.00000000E+01  9.00000000E+01 degrees

 getcut: wavevector=  0.0000  0.0000  0.0000  ngfft= 972 972 972
         ecut(hartree)=     80.000   => boxcut(ratio)=   2.01175

--- Pseudopotential description ------------------------------------------------
- pspini: atom type   1  psp file is /pc2/groups/hpc-prf-metdyn/epop2d10_Lukas/Pseudos/GTH/B-q3
- pspatm: opening atomic psp file    /pc2/groups/hpc-prf-metdyn/epop2d10_Lukas/Pseudos/GTH/B-q3
- Goedecker pseudopotential for B
-  5.00000   3.00000     70301                znucl, zion, pspdat
   10   11    1    2      2001   0.00000      pspcod,pspxc,lmax,lloc,mmax,r2well
 rloc=   0.4189914
 cc(1:2)=  -5.8594617   0.9037564
 for angular momentum l =  0 r(l) =   0.3713205
   h11, h12, h13 =   6.2972802   0.0000000   0.0000000
        h22, h23 =               0.0000000   0.0000000
             h33 =                           0.0000000
 for angular momentum l =  1 r(l) =   0.3645631
   h11, h12, h13 =   0.0000000   0.0000000   0.0000000
        h22, h23 =               0.0000000   0.0000000
             h33 =                           0.0000000
   k11, k12, k13 =   0.0008550   0.0000000   0.0000000
        k22, k23 =               0.0000000   0.0000000
             k33 =                           0.0000000
-  Local part computed in reciprocal space.

 pspatm : COMMENT -
  the projectors are not normalized,
  so that the KB energies are not consistent with 
  definition in PRB44, 8503 (1991). 
  However, this does not influence the results obtained hereafter.
  pspatm : epsatm=   -0.33797878
         --- l  ekb(1:nproj) -->
             0    1.142890
             1    0.000000
 pspatm: atomic psp has been read  and splines computed

- pspini: atom type   2  psp file is /pc2/groups/hpc-prf-metdyn/epop2d10_Lukas/Pseudos/GTH/F-q7
- pspatm: opening atomic psp file    /pc2/groups/hpc-prf-metdyn/epop2d10_Lukas/Pseudos/GTH/F-q7
- Goedecker pseudopotential for F
-  9.00000   7.00000     70301                znucl, zion, pspdat
   10   11    1    2      2001   0.00000      pspcod,pspxc,lmax,lloc,mmax,r2well
 rloc=   0.2149296
 cc(1:2)= -21.5730284   3.1997761
 for angular momentum l =  0 r(l) =   0.1946840
   h11, h12, h13 =  23.7435405   0.0000000   0.0000000
        h22, h23 =               0.0000000   0.0000000
             h33 =                           0.0000000
 for angular momentum l =  1 r(l) =   0.1861561
   h11, h12, h13 =   0.0000000   0.0000000   0.0000000
        h22, h23 =               0.0000000   0.0000000
             h33 =                           0.0000000
   k11, k12, k13 =   0.0126140   0.0000000   0.0000000
        k22, k23 =               0.0000000   0.0000000
             k33 =                           0.0000000
-  Local part computed in reciprocal space.

 pspatm : COMMENT -
  the projectors are not normalized,
  so that the KB energies are not consistent with 
  definition in PRB44, 8503 (1991). 
  However, this does not influence the results obtained hereafter.
  pspatm : epsatm=    0.15940128
         --- l  ekb(1:nproj) -->
             0    0.621071
             1    0.000000
 pspatm: atomic psp has been read  and splines computed

  -1.78577497E+00                                ecore*ucvol(ha*bohr**3)
--------------------------------------------------------------------------------

_setup2: Arith. and geom. avg. npw (full set) are59057463.00059057463.000

================================================================================

--- !BeginCycle
iteration_state: {dtset: 1, }
solver: {iscf: 7, nstep: 100, nline: 4, wfoptalg: 0, }
tolerances: {toldfe: 1.00E-10, }
...

     iter   Etot(hartree)      deltaE(h)  residm     vres2
 ETOT  1  -14.298765410630    -1.430E+01 3.791E-01 1.350E+06
 ETOT  2  -21.208905747446    -6.910E+00 3.320E+00 7.788E+05
 ETOT  3  -26.009503377974    -4.801E+00 1.471E-01 3.922E+05
 ETOT  4  -26.657921975624    -6.484E-01 6.836E-03 1.789E+05
 ETOT  5  -26.731253204827    -7.333E-02 7.529E-04 1.159E+05
 ETOT  6  -26.765081270940    -3.383E-02 6.679E-04 6.873E+04
 ETOT  7  -26.834290273607    -6.921E-02 4.881E-04 4.316E+04
 ETOT  8  -26.844162576940    -9.872E-03 3.237E-05 4.146E+04
 ETOT  9  -26.848034331585    -3.872E-03 1.579E-05 3.879E+04
 ETOT 10  -26.949493336099    -1.015E-01 1.932E-03 4.966E+04
 ETOT 11  -26.945206415795     4.287E-03 1.648E-04 2.133E+03
 ETOT 12  -26.956388196334    -1.118E-02 2.955E-04 4.113E+02
 ETOT 13  -26.952547063087     3.841E-03 1.425E-04 2.223E+02
 ETOT 14  -26.957773730913    -5.227E-03 8.666E-05 3.716E+01
 ETOT 15  -26.957832201419    -5.847E-05 6.522E-06 2.019E+01
 ETOT 16  -26.957835236699    -3.035E-06 5.797E-07 1.102E+01
 ETOT 17  -26.957837976204    -2.740E-06 7.317E-06 5.861E+00
 ETOT 18  -26.957837341989     6.342E-07 2.519E-07 2.989E+00
 ETOT 19  -26.957838370336    -1.028E-06 3.520E-06 2.654E+00
 ETOT 20  -26.957838558927    -1.886E-07 3.429E-07 4.243E-01
 ETOT 21  -26.957838562497    -3.570E-09 6.382E-07 1.925E-01
 ETOT 22  -26.957837947347     6.151E-07 1.543E-07 8.505E-01
 ETOT 23  -26.957838262169    -3.148E-07 3.660E-07 4.534E-01
 ETOT 24  -26.957838555498    -2.933E-07 9.554E-08 1.423E-01
 ETOT 25  -26.957838510974     4.452E-08 4.436E-07 1.208E-01
 ETOT 26  -26.957838564504    -5.353E-08 5.443E-08 3.965E-02
 ETOT 27  -26.957838571217    -6.713E-09 2.040E-07 2.995E-02
 ETOT 28  -26.957838594447    -2.323E-08 1.738E-08 2.733E-02
 ETOT 29  -26.957838592823     1.624E-09 4.094E-07 9.237E-03
 ETOT 30  -26.957838593478    -6.547E-10 7.094E-09 4.417E-03
 ETOT 31  -26.957838594210    -7.321E-10 2.136E-07 1.586E-03
 ETOT 32  -26.957838590571     3.639E-09 6.056E-09 5.302E-03
 ETOT 33  -26.957838594459    -3.889E-09 1.982E-07 1.773E-04
 ETOT 34  -26.957838594466    -6.320E-12 4.971E-09 2.786E-04
 ETOT 35  -26.957838594465     7.923E-13 1.528E-07 5.139E-05

 At SCF step   35, etot is converged : 
  for the second time, diff in etot=  7.923E-13 < toldfe=  1.000E-10

 Cartesian components of stress tensor (hartree/bohr^3)
  sigma(1 1)=  1.00533661E-07  sigma(3 2)=  0.00000000E+00
  sigma(2 2)=  1.00533661E-07  sigma(3 1)=  0.00000000E+00
  sigma(3 3)=  7.94628715E-08  sigma(2 1)=  0.00000000E+00


--- !ResultsGS
iteration_state: {dtset: 1, }
comment   : Summary of ground state results
lattice_vectors:
- [120.0000000,   0.0000000,   0.0000000, ]
- [  0.0000000, 120.0000000,   0.0000000, ]
- [  0.0000000,   0.0000000, 120.0000000, ]
lattice_lengths: [ 120.00000,  120.00000,  120.00000, ]
lattice_angles: [ 90.000,  90.000,  90.000, ] # degrees, (23, 13, 12)
lattice_volume:   1.7280000E+06
convergence: {deltae:  7.923E-13, res2:  5.139E-05, residm:  1.528E-07, diffor: null, }
etotal    :  -2.69578386E+01
entropy   :   0.00000000E+00
fermie    :  -2.48532968E-01
cartesian_stress_tensor: # hartree/bohr^3
- [  1.00533661E-07,   0.00000000E+00,   0.00000000E+00, ]
- [  0.00000000E+00,   1.00533661E-07,   0.00000000E+00, ]
- [  0.00000000E+00,   0.00000000E+00,   7.94628715E-08, ]
pressure_GPa:  -2.7512E-03
xred      :
- [  0.0000E+00,   0.0000E+00,   0.0000E+00,  B]
- [  0.0000E+00,   0.0000E+00,   1.9883E-02,  F]
cartesian_forces: # hartree/bohr
- [ -0.00000000E+00,  -0.00000000E+00,  -1.32497972E-02, ]
- [ -0.00000000E+00,  -0.00000000E+00,   1.32497972E-02, ]
force_length_stats: {min:   1.32497972E-02, max:   1.32497972E-02, mean:   1.32497972E-02, }
...

 Integrated electronic density in atomic spheres:
 ------------------------------------------------
 Atom  Sphere_radius  Integrated_density
    1        2.00000          2.98479985
    2        2.00000          7.15920456
================================================================================

 ----iterations are completed or convergence reached----

 Mean square residual over all n,k,spin=   30.864E-10; max=  15.275E-08
 reduced coordinates (array xred) for    2 atoms
       0.000000000000      0.000000000000      0.000000000000
       0.000000000000      0.000000000000      0.019883066943
 rms dE/dt=  9.2053E-01; max dE/dt=  1.7088E+00; dE/dt below (all hartree)
    1       0.000000000000      0.000000000000      1.708842160361
    2       0.000000000000      0.000000000000     -1.471109169625

 cartesian coordinates (angstrom) at end:
    1      0.00000000000000     0.00000000000000     0.00000000000000
    2      0.00000000000000     0.00000000000000     1.26259990359711

 cartesian forces (hartree/bohr) at end:
    1     -0.00000000000000    -0.00000000000000    -0.01324979720828
    2     -0.00000000000000    -0.00000000000000     0.01324979720828
 frms,max,avg= 7.6497740E-03 1.3249797E-02   0.000E+00  0.000E+00 -9.906E-04 h/b

 cartesian forces (eV/Angstrom) at end:
    1     -0.00000000000000    -0.00000000000000    -0.68133190932819
    2     -0.00000000000000    -0.00000000000000     0.68133190932819
 frms,max,avg= 3.9336716E-01 6.8133191E-01   0.000E+00  0.000E+00 -5.094E-02 e/A
 length scales=120.000000000000120.000000000000120.000000000000 bohr
              = 63.501265030800 63.501265030800 63.501265030800 angstroms
 prteigrs : about to open file final_calculationo_EIG
 Fermi (or HOMO) energy (hartree) =  -0.24853   Average Vxc (hartree)=  -0.00038
 Eigenvalues (hartree) for nkpt=   1  k points:
 kpt#   1, nband= 50, wtk=  1.00000, kpt=  0.0000  0.0000  0.0000 (reduced coord)
  -1.20783   -0.56110   -0.47536   -0.47536   -0.24853   -0.07645   -0.07645   -0.00773
  -0.00016    0.00111    0.00111    0.00111    0.00116    0.00118    0.00138    0.00240
   0.00240    0.00241    0.00251    0.00251    0.00251    0.00253    0.00254    0.00255
   0.00255    0.00255    0.00297    0.00382    0.00382    0.00382    0.00387    0.00389
   0.00389    0.00390    0.00421    0.00515    0.00518    0.00518    0.00523    0.00525
   0.00545    0.00622    0.00632    0.00632    0.00654    0.00656    0.00658    0.00658
   0.00659    0.00662

--- !EnergyTerms
iteration_state     : {dtset: 1, }
comment             : Components of total free energy in Hartree
kinetic             :  2.05902171573145E+01
hartree             :  3.02999212227722E+01
xc                  : -5.57944730565594E+00
Ewald energy        :  7.61939677586121E+00
psp_core            : -1.03343458872278E-06
local_psp           : -8.19283534186865E+01
non_local_psp       :  2.04042800736427E+00
total_energy        : -2.69578385944649E+01
total_energy_eV     : -7.33560094029908E+02
band_energy         : -5.93638364966082E+00
...


 Cartesian components of stress tensor (hartree/bohr^3)
  sigma(1 1)=  1.00533661E-07  sigma(3 2)=  0.00000000E+00
  sigma(2 2)=  1.00533661E-07  sigma(3 1)=  0.00000000E+00
  sigma(3 3)=  7.94628715E-08  sigma(2 1)=  0.00000000E+00

-Cartesian components of stress tensor (GPa)         [Pressure= -2.7512E-03 GPa]
- sigma(1 1)=  2.95780194E-03  sigma(3 2)=  0.00000000E+00
- sigma(2 2)=  2.95780194E-03  sigma(3 1)=  0.00000000E+00
- sigma(3 3)=  2.33787800E-03  sigma(2 1)=  0.00000000E+00

== END DATASET(S) ==============================================================
================================================================================
  
 -outvars: echo values of variables after computation  --------
            acell      1.2000000000E+02  1.2000000000E+02  1.2000000000E+02 Bohr
              amu      1.08110000E+01  1.89984032E+01
      chksymbreak           0
      chksymtnons           0
           diemac      2.00000000E+00
             ecut      8.00000000E+01 Hartree
           etotal     -2.6957838594E+01
            fcart     -0.0000000000E+00 -0.0000000000E+00 -1.3249797208E-02
                      -0.0000000000E+00 -0.0000000000E+00  1.3249797208E-02
-          fftalg         312
           istwfk        2
              ixc          11
           kptopt           0
P           mkmem           1
            natom           2
            nband          50
            ngfft         972     972     972
             nkpt           1
            nstep         100
             nsym           8
           ntypat           2
              occ      2.000000  2.000000  2.000000  2.000000  2.000000  0.000000
                       0.000000  0.000000  0.000000  0.000000  0.000000  0.000000
                       0.000000  0.000000  0.000000  0.000000  0.000000  0.000000
                       0.000000  0.000000  0.000000  0.000000  0.000000  0.000000
                       0.000000  0.000000  0.000000  0.000000  0.000000  0.000000
                       0.000000  0.000000  0.000000  0.000000  0.000000  0.000000
                       0.000000  0.000000  0.000000  0.000000  0.000000  0.000000
                       0.000000  0.000000  0.000000  0.000000  0.000000  0.000000
                       0.000000  0.000000
          spgroup          99
           strten      1.0053366130E-07  1.0053366130E-07  7.9462871494E-08
                       0.0000000000E+00  0.0000000000E+00  0.0000000000E+00
           symrel      1  0  0   0  1  0   0  0  1       1  0  0   0 -1  0   0  0  1
                      -1  0  0   0 -1  0   0  0  1      -1  0  0   0  1  0   0  0  1
                       0  1  0   1  0  0   0  0  1       0  1  0  -1  0  0   0  0  1
                       0 -1  0  -1  0  0   0  0  1       0 -1  0   1  0  0   0  0  1
           toldfe      1.00000000E-10 Hartree
            typat      1  2
           xangst      0.0000000000E+00  0.0000000000E+00  0.0000000000E+00
                       0.0000000000E+00  0.0000000000E+00  1.2625999036E+00
            xcart      0.0000000000E+00  0.0000000000E+00  0.0000000000E+00
                       0.0000000000E+00  0.0000000000E+00  2.3859680332E+00
             xred      0.0000000000E+00  0.0000000000E+00  0.0000000000E+00
                       0.0000000000E+00  0.0000000000E+00  1.9883066943E-02
            znucl        5.00000    9.00000

================================================================================


- Timing analysis has been suppressed with timopt=0



================================================================================

 Suggested references for the acknowledgment of ABINIT usage.

 The users of ABINIT have little formal obligations with respect to the ABINIT group
 (those specified in the GNU General Public License, http://www.gnu.org/copyleft/gpl.txt).
 However, it is common practice in the scientific literature,
 to acknowledge the efforts of people that have made the research possible.
 In this spirit, please find below suggested citations of work written by ABINIT developers,
 corresponding to implementations inside of ABINIT that you have used in the present run.
 Note also that it will be of great value to readers of publications presenting these results,
 to read papers enabling them to understand the theoretical formalism and details
 of the ABINIT implementation.
 For information on why they are suggested, see also https://docs.abinit.org/theory/acknowledgments.
-
- [1] The Abinit project: Impact, environment and recent developments.
- Computer Phys. Comm. 248, 107042 (2020).
- X.Gonze, B. Amadon, G. Antonius, F.Arnardi, L.Baguet, J.-M.Beuken,
- J.Bieder, F.Bottin, J.Bouchet, E.Bousquet, N.Brouwer, F.Bruneval,
- G.Brunin, T.Cavignac, J.-B. Charraud, Wei Chen, M.Cote, S.Cottenier,
- J.Denier, G.Geneste, Ph.Ghosez, M.Giantomassi, Y.Gillet, O.Gingras,
- D.R.Hamann, G.Hautier, Xu He, N.Helbig, N.Holzwarth, Y.Jia, F.Jollet,
- W.Lafargue-Dit-Hauret, K.Lejaeghere, M.A.L.Marques, A.Martin, C.Martins,
- H.P.C. Miranda, F.Naccarato, K. Persson, G.Petretto, V.Planes, Y.Pouillon,
- S.Prokhorenko, F.Ricci, G.-M.Rignanese, A.H.Romero, M.M.Schmitt, M.Torrent,
- M.J.van Setten, B.Van Troeye, M.J.Verstraete, G.Zerah and J.W.Zwanzig
- Comment: the fifth generic paper describing the ABINIT project.
- Note that a version of this paper, that is not formatted for Computer Phys. Comm. 
- is available at https://www.abinit.org/sites/default/files/ABINIT20.pdf .
- The licence allows the authors to put it on the Web.
- DOI and bibtex: see https://docs.abinit.org/theory/bibliography/#gonze2020
-
- [2] ABINIT: Overview, and focus on selected capabilities
- J. Chem. Phys. 152, 124102 (2020).
- A. Romero, D.C. Allan, B. Amadon, G. Antonius, T. Applencourt, L.Baguet,
- J.Bieder, F.Bottin, J.Bouchet, E.Bousquet, F.Bruneval,
- G.Brunin, D.Caliste, M.Cote,
- J.Denier, C. Dreyer, Ph.Ghosez, M.Giantomassi, Y.Gillet, O.Gingras,
- D.R.Hamann, G.Hautier, F.Jollet, G. Jomard,
- A.Martin, 
- H.P.C. Miranda, F.Naccarato, G.Petretto, N.A. Pike, V.Planes,
- S.Prokhorenko, T. Rangel, F.Ricci, G.-M.Rignanese, M.Royo, M.Stengel, M.Torrent,
- M.J.van Setten, B.Van Troeye, M.J.Verstraete, J.Wiktor, J.W.Zwanziger, and X.Gonze.
- Comment: a global overview of ABINIT, with focus on selected capabilities .
- Note that a version of this paper, that is not formatted for J. Chem. Phys 
- is available at https://www.abinit.org/sites/default/files/ABINIT20_JPC.pdf .
- The licence allows the authors to put it on the Web.
- DOI and bibtex: see https://docs.abinit.org/theory/bibliography/#romero2020
-
- [3] Recent developments in the ABINIT software package.
- Computer Phys. Comm. 205, 106 (2016).
- X.Gonze, F.Jollet, F.Abreu Araujo, D.Adams, B.Amadon, T.Applencourt,
- C.Audouze, J.-M.Beuken, J.Bieder, A.Bokhanchuk, E.Bousquet, F.Bruneval
- D.Caliste, M.Cote, F.Dahm, F.Da Pieve, M.Delaveau, M.Di Gennaro,
- B.Dorado, C.Espejo, G.Geneste, L.Genovese, A.Gerossier, M.Giantomassi,
- Y.Gillet, D.R.Hamann, L.He, G.Jomard, J.Laflamme Janssen, S.Le Roux,
- A.Levitt, A.Lherbier, F.Liu, I.Lukacevic, A.Martin, C.Martins,
- M.J.T.Oliveira, S.Ponce, Y.Pouillon, T.Rangel, G.-M.Rignanese,
- A.H.Romero, B.Rousseau, O.Rubel, A.A.Shukri, M.Stankovski, M.Torrent,
- M.J.Van Setten, B.Van Troeye, M.J.Verstraete, D.Waroquier, J.Wiktor,
- B.Xu, A.Zhou, J.W.Zwanziger.
- Comment: the fourth generic paper describing the ABINIT project.
- Note that a version of this paper, that is not formatted for Computer Phys. Comm. 
- is available at https://www.abinit.org/sites/default/files/ABINIT16.pdf .
- The licence allows the authors to put it on the Web.
- DOI and bibtex: see https://docs.abinit.org/theory/bibliography/#gonze2016
-
- And optionally:
-
- [4] ABINIT: First-principles approach of materials and nanosystem properties.
- Computer Phys. Comm. 180, 2582-2615 (2009).
- X. Gonze, B. Amadon, P.-M. Anglade, J.-M. Beuken, F. Bottin, P. Boulanger, F. Bruneval,
- D. Caliste, R. Caracas, M. Cote, T. Deutsch, L. Genovese, Ph. Ghosez, M. Giantomassi
- S. Goedecker, D.R. Hamann, P. Hermet, F. Jollet, G. Jomard, S. Leroux, M. Mancini, S. Mazevet,
- M.J.T. Oliveira, G. Onida, Y. Pouillon, T. Rangel, G.-M. Rignanese, D. Sangalli, R. Shaltaf,
- M. Torrent, M.J. Verstraete, G. Zerah, J.W. Zwanziger
- Comment: the third generic paper describing the ABINIT project.
- Note that a version of this paper, that is not formatted for Computer Phys. Comm. 
- is available at https://www.abinit.org/sites/default/files/ABINIT_CPC_v10.pdf .
- The licence allows the authors to put it on the Web.
- DOI and bibtex: see https://docs.abinit.org/theory/bibliography/#gonze2009
-
- Proc.   0 individual time (sec): cpu=    1188491.1  wall=      62292.4

================================================================================

 Calculation completed.
.Delivered   0 WARNINGs and   5 COMMENTs to log file.
+Overall time at end (sec) : cpu=    1188491.1  wall=      62292.4
