
.Version 9.6.2 of ABINIT 
.(MPI version, prepared for a x86_64_linux_gnu11.3 computer) 

.Copyright (C) 1998-2021 ABINIT group . 
 ABINIT comes with ABSOLUTELY NO WARRANTY.
 It is free software, and you are welcome to redistribute it
 under certain conditions (GNU General Public License,
 see ~abinit/COPYING or http://www.gnu.org/copyleft/gpl.txt).

 ABINIT is a project of the Universite Catholique de Louvain,
 Corning Inc. and other collaborators, see ~abinit/doc/developers/contributors.txt .
 Please read https://docs.abinit.org/theory/acknowledgments for suggested
 acknowledgments of the ABINIT effort.
 For more information, see https://www.abinit.org .

.Starting date : Sat  3 Aug 2024.
- ( at 11h26 )
  
- The starting date is more than 2 years after the initial release
- of this version of ABINIT, namely Nov 2021.
- Note that the use beyond 3 years after the release will not be supported.
- Action: please, switch to a more recent version of ABINIT.

- input  file    -> final_calculation.abi
- output file    -> final_calculation.abo
- root for input  files -> final_calculationi
- root for output files -> final_calculationo


 Symmetries : space group Pm m 2 (# 25); Bravais oP (primitive ortho.)
================================================================================
 Values of the parameters that define the memory need of the present run
     intxc =       0    ionmov =       0      iscf =       7    lmnmax =       2
     lnmax =       2     mgfft =     972  mpssoang =       2    mqgrid =   48317
     natom =      15  nloc_mem =       1    nspden =       1   nspinor =       1
    nsppol =       1      nsym =       4    n1xccc =       0    ntypat =       3
    occopt =       1   xclevel =       2
-    mband =          50        mffmem =           1         mkmem =           1
       mpw =    29528732          nfft =   918330048          nkpt =           1
================================================================================
P This job should need less than                  305753.841 Mbytes of memory.
  Rough estimation (10% accuracy) of disk space for files :
_ WF disk file :  22528.637 Mbytes ; DEN or POT disk file :  -1185.696 Mbytes.
================================================================================

--------------------------------------------------------------------------------
------------- Echo of variables that govern the present computation ------------
--------------------------------------------------------------------------------
-
- outvars: echo of selected default values                                      
-   iomode0 =  0 , fftalg0 =312 , wfoptalg0 =  0
-
- outvars: echo of global parameters not present in the input file              
-  max_nthreads =   64
-
 -outvars: echo values of preprocessed input variables --------
            acell      1.2000000000E+02  1.2000000000E+02  1.2000000000E+02 Bohr
              amu      1.59994000E+01  1.20110000E+01  1.00794000E+00
      chksymbreak           0
      chksymtnons           0
           diemac      2.00000000E+00
             ecut      8.00000000E+01 Hartree
-          fftalg         312
           istwfk        2
              ixc          11
           kptopt           0
P           mkmem           1
            natom          15
            nband          50
            ngfft         972     972     972
             nkpt           1
            nstep         100
             nsym           4
           ntypat           3
              occ      2.000000  2.000000  2.000000  2.000000  2.000000  2.000000
                       2.000000  2.000000  2.000000  2.000000  2.000000  2.000000
                       2.000000  2.000000  2.000000  2.000000  0.000000  0.000000
                       0.000000  0.000000  0.000000  0.000000  0.000000  0.000000
                       0.000000  0.000000  0.000000  0.000000  0.000000  0.000000
                       0.000000  0.000000  0.000000  0.000000  0.000000  0.000000
                       0.000000  0.000000  0.000000  0.000000  0.000000  0.000000
                       0.000000  0.000000  0.000000  0.000000  0.000000  0.000000
                       0.000000  0.000000
          spgroup          25
           symrel      1  0  0   0  1  0   0  0  1       1  0  0   0 -1  0   0  0  1
                      -1  0  0   0 -1  0   0  0  1      -1  0  0   0  1  0   0  0  1
           toldfe      1.00000000E-10 Hartree
            typat      1  2  2  2  2  3  3  3  3  3  3  3  3  3  3
           xangst      0.0000000000E+00  0.0000000000E+00  2.6959997942E-01
                       0.0000000000E+00  1.1704999106E+00 -5.1839996042E-01
                       0.0000000000E+00 -1.1704999106E+00 -5.1839996042E-01
                       0.0000000000E+00  2.3715998189E+00  4.0819996883E-01
                       0.0000000000E+00 -2.3715998189E+00  4.0819996883E-01
                      -8.8789993221E-01  1.1869999094E+00 -1.1675999109E+00
                       8.8789993221E-01  1.1869999094E+00 -1.1675999109E+00
                       8.8789993221E-01 -1.1869999094E+00 -1.1675999109E+00
                      -8.8789993221E-01 -1.1869999094E+00 -1.1675999109E+00
                       0.0000000000E+00  3.2960997483E+00 -1.7289998680E-01
                       0.0000000000E+00 -3.2960997483E+00 -1.7289998680E-01
                       8.8399993250E-01  2.3551998202E+00  1.0455999202E+00
                      -8.8399993250E-01  2.3551998202E+00  1.0455999202E+00
                      -8.8399993250E-01 -2.3551998202E+00  1.0455999202E+00
                       8.8399993250E-01 -2.3551998202E+00  1.0455999202E+00
            xcart      0.0000000000E+00  0.0000000000E+00  5.0947012653E-01
                       0.0000000000E+00  2.2119242697E+00 -9.7963395249E-01
                       0.0000000000E+00 -2.2119242697E+00 -9.7963395249E-01
                       0.0000000000E+00  4.4816741546E+00  7.7138614855E-01
                       0.0000000000E+00 -4.4816741546E+00  7.7138614855E-01
                      -1.6778877053E+00  2.2431047485E+00 -2.2064440643E+00
                       1.6778877053E+00  2.2431047485E+00 -2.2064440643E+00
                       1.6778877053E+00 -2.2431047485E+00 -2.2064440643E+00
                      -1.6778877053E+00 -2.2431047485E+00 -2.2064440643E+00
                       0.0000000000E+00  6.2287258310E+00 -3.2673362343E-01
                       0.0000000000E+00 -6.2287258310E+00 -3.2673362343E-01
                       1.6705177739E+00  4.4506826484E+00  1.9758974937E+00
                      -1.6705177739E+00  4.4506826484E+00  1.9758974937E+00
                      -1.6705177739E+00 -4.4506826484E+00  1.9758974937E+00
                       1.6705177739E+00 -4.4506826484E+00  1.9758974937E+00
             xred      0.0000000000E+00  0.0000000000E+00  4.2455843877E-03
                       0.0000000000E+00  1.8432702247E-02 -8.1636162708E-03
                       0.0000000000E+00 -1.8432702247E-02 -8.1636162708E-03
                       0.0000000000E+00  3.7347284621E-02  6.4282179046E-03
                       0.0000000000E+00 -3.7347284621E-02  6.4282179046E-03
                      -1.3982397544E-02  1.8692539571E-02 -1.8387033869E-02
                       1.3982397544E-02  1.8692539571E-02 -1.8387033869E-02
                       1.3982397544E-02 -1.8692539571E-02 -1.8387033869E-02
                      -1.3982397544E-02 -1.8692539571E-02 -1.8387033869E-02
                       0.0000000000E+00  5.1906048592E-02 -2.7227801952E-03
                       0.0000000000E+00 -5.1906048592E-02 -2.7227801952E-03
                       1.3920981449E-02  3.7089022070E-02  1.6465812447E-02
                      -1.3920981449E-02  3.7089022070E-02  1.6465812447E-02
                      -1.3920981449E-02 -3.7089022070E-02  1.6465812447E-02
                       1.3920981449E-02 -3.7089022070E-02  1.6465812447E-02
            znucl        8.00000    6.00000    1.00000

================================================================================

 chkinp: Checking input parameters for consistency.

================================================================================
== DATASET  1 ==================================================================
-   mpi_nproc: 1, omp_nthreads: 64 (-1 if OMP is not activated)


--- !DatasetInfo
iteration_state: {dtset: 1, }
dimensions: {natom: 15, nkpt: 1, mband: 50, nsppol: 1, nspinor: 1, nspden: 1, mpw: 29528732, }
cutoff_energies: {ecut:  80.0, pawecutdg:  -1.0, }
electrons: {nelect:   3.20000000E+01, charge:   0.00000000E+00, occopt:   1.00000000E+00, tsmear:   1.00000000E-02, }
meta: {optdriver: 0, ionmov: 0, optcell: 0, iscf: 7, paral_kgb: 0, }
...

 Exchange-correlation functional for the present dataset will be:
  GGA: Perdew-Burke-Ernzerhof functional - ixc=11
 Citation for XC functional:
  J.P.Perdew, K.Burke, M.Ernzerhof, PRL 77, 3865 (1996)

 Real(R)+Recip(G) space primitive vectors, cartesian coordinates (Bohr,Bohr^-1):
 R(1)=120.0000000  0.0000000  0.0000000  G(1)=  0.0083333  0.0000000  0.0000000
 R(2)=  0.0000000120.0000000  0.0000000  G(2)=  0.0000000  0.0083333  0.0000000
 R(3)=  0.0000000  0.0000000120.0000000  G(3)=  0.0000000  0.0000000  0.0083333
 Unit cell volume ucvol=  1.7280000E+06 bohr^3
 Angles (23,13,12)=  9.00000000E+01  9.00000000E+01  9.00000000E+01 degrees

 getcut: wavevector=  0.0000  0.0000  0.0000  ngfft= 972 972 972
         ecut(hartree)=     80.000   => boxcut(ratio)=   2.01175

--- Pseudopotential description ------------------------------------------------
- pspini: atom type   1  psp file is /pc2/groups/hpc-prf-metdyn/epop2d10_Lukas/Pseudos/GTH/O-q6
- pspatm: opening atomic psp file    /pc2/groups/hpc-prf-metdyn/epop2d10_Lukas/Pseudos/GTH/O-q6
- Goedecker pseudopotential for O
-  8.00000   6.00000     70301                znucl, zion, pspdat
   10   11    1    2      2001   0.00000      pspcod,pspxc,lmax,lloc,mmax,r2well
 rloc=   0.2445543
 cc(1:2)= -16.6672148   2.4873113
 for angular momentum l =  0 r(l) =   0.2209559
   h11, h12, h13 =  18.3374581   0.0000000   0.0000000
        h22, h23 =               0.0000000   0.0000000
             h33 =                           0.0000000
 for angular momentum l =  1 r(l) =   0.2113325
   h11, h12, h13 =   0.0000000   0.0000000   0.0000000
        h22, h23 =               0.0000000   0.0000000
             h33 =                           0.0000000
   k11, k12, k13 =   0.0075593   0.0000000   0.0000000
        k22, k23 =               0.0000000   0.0000000
             k33 =                           0.0000000
-  Local part computed in reciprocal space.

 pspatm : COMMENT -
  the projectors are not normalized,
  so that the KB energies are not consistent with 
  definition in PRB44, 8503 (1991). 
  However, this does not influence the results obtained hereafter.
  pspatm : epsatm=    0.13419041
         --- l  ekb(1:nproj) -->
             0    0.701231
             1    0.000000
 pspatm: atomic psp has been read  and splines computed

- pspini: atom type   2  psp file is /pc2/groups/hpc-prf-metdyn/epop2d10_Lukas/Pseudos/GTH/C-q4
- pspatm: opening atomic psp file    /pc2/groups/hpc-prf-metdyn/epop2d10_Lukas/Pseudos/GTH/C-q4
- Goedecker pseudopotential for C
-  6.00000   4.00000     70301                znucl, zion, pspdat
   10   11    1    2      2001   0.00000      pspcod,pspxc,lmax,lloc,mmax,r2well
 rloc=   0.3384712
 cc(1:2)=  -8.8036740   1.3392108
 for angular momentum l =  0 r(l) =   0.3025757
   h11, h12, h13 =   9.6224867   0.0000000   0.0000000
        h22, h23 =               0.0000000   0.0000000
             h33 =                           0.0000000
 for angular momentum l =  1 r(l) =   0.2915069
   h11, h12, h13 =   0.0000000   0.0000000   0.0000000
        h22, h23 =               0.0000000   0.0000000
             h33 =                           0.0000000
   k11, k12, k13 =   0.0020732   0.0000000   0.0000000
        k22, k23 =               0.0000000   0.0000000
             k33 =                           0.0000000
-  Local part computed in reciprocal space.

 pspatm : COMMENT -
  the projectors are not normalized,
  so that the KB energies are not consistent with 
  definition in PRB44, 8503 (1991). 
  However, this does not influence the results obtained hereafter.
  pspatm : epsatm=   -0.04360725
         --- l  ekb(1:nproj) -->
             0    0.944919
             1    0.000000
 pspatm: atomic psp has been read  and splines computed

- pspini: atom type   3  psp file is /pc2/groups/hpc-prf-metdyn/epop2d10_Lukas/Pseudos/GTH/H-q1
- pspatm: opening atomic psp file    /pc2/groups/hpc-prf-metdyn/epop2d10_Lukas/Pseudos/GTH/H-q1
- Goedecker pseudopotential for H
-  1.00000   1.00000     70301                znucl, zion, pspdat
   10   11   -1    2      2001   0.00000      pspcod,pspxc,lmax,lloc,mmax,r2well
 rloc=   0.2000000
 cc(1:2)=  -4.1789004   0.7244633
-  Local part computed in reciprocal space.

 pspatm : COMMENT -
  the projectors are not normalized,
  so that the KB energies are not consistent with 
  definition in PRB44, 8503 (1991). 
  However, this does not influence the results obtained hereafter.
  pspatm : epsatm=   -0.00136065
         --- l  ekb(1:nproj) -->
 pspatm: atomic psp has been read  and splines computed

  -1.72304350E+00                                ecore*ucvol(ha*bohr**3)
--------------------------------------------------------------------------------

_setup2: Arith. and geom. avg. npw (full set) are59057463.00059057463.000

================================================================================

--- !BeginCycle
iteration_state: {dtset: 1, }
solver: {iscf: 7, nstep: 100, nline: 4, wfoptalg: 0, }
tolerances: {toldfe: 1.00E-10, }
...

     iter   Etot(hartree)      deltaE(h)  residm     vres2
 ETOT  1  -11.441643697307    -1.144E+01 4.306E-01 1.546E+07
 ETOT  2  -33.118189667998    -2.168E+01 1.053E+00 5.030E+06
 ETOT  3  -43.259188739927    -1.014E+01 1.531E-01 2.111E+06
 ETOT  4  -44.062500164284    -8.033E-01 4.904E-02 1.459E+06
 ETOT  5  -44.237575021893    -1.751E-01 5.462E-03 1.175E+06
 ETOT  6  -44.288176491718    -5.060E-02 8.168E-04 9.797E+05
 ETOT  7  -44.488270428313    -2.001E-01 1.302E-03 4.890E+05
 ETOT  8  -44.547795133058    -5.952E-02 5.391E-04 3.327E+05
 ETOT  9  -44.575921437031    -2.813E-02 1.988E-04 2.899E+05
 ETOT 10  -44.670098587602    -9.418E-02 1.464E-02 3.570E+04
 ETOT 11  -44.720595709951    -5.050E-02 4.097E-03 6.308E+03
 ETOT 12  -44.706433938098     1.416E-02 2.764E-03 1.487E+03
 ETOT 13  -44.714303475994    -7.870E-03 8.889E-04 5.880E+02
 ETOT 14  -44.717189019183    -2.886E-03 6.348E-04 2.663E+02
 ETOT 15  -44.722110435247    -4.921E-03 2.151E-04 1.370E+02
 ETOT 16  -44.722777291065    -6.669E-04 2.105E-05 9.069E+01
 ETOT 17  -44.722787129490    -9.838E-06 6.162E-07 6.838E+01
 ETOT 18  -44.722785720037     1.409E-06 1.699E-07 5.475E+01
 ETOT 19  -44.722795274531    -9.554E-06 3.970E-07 2.033E+01
 ETOT 20  -44.722796896296    -1.622E-06 2.876E-07 4.815E+00
 ETOT 21  -44.722802970946    -6.075E-06 1.412E-07 1.971E+00
 ETOT 22  -44.722805755745    -2.785E-06 3.351E-08 1.196E+00
 ETOT 23  -44.722801409897     4.346E-06 6.649E-08 1.050E+00
 ETOT 24  -44.722804764193    -3.354E-06 2.503E-08 7.186E-01
 ETOT 25  -44.722805833321    -1.069E-06 2.056E-08 2.897E-01
 ETOT 26  -44.722805714513     1.188E-07 5.155E-09 1.846E-01
 ETOT 27  -44.722805732593    -1.808E-08 9.476E-10 1.462E-01
 ETOT 28  -44.722805556009     1.766E-07 1.635E-09 1.015E-01
 ETOT 29  -44.722805668671    -1.127E-07 1.294E-09 6.309E-02
 ETOT 30  -44.722805759313    -9.064E-08 2.551E-09 2.145E-02
 ETOT 31  -44.722805866737    -1.074E-07 4.169E-09 9.978E-03
 ETOT 32  -44.722805870696    -3.959E-09 2.949E-09 1.381E-02
 ETOT 33  -44.722805874060    -3.364E-09 1.706E-09 9.197E-03
 ETOT 34  -44.722805870231     3.829E-09 3.169E-09 5.054E-03
 ETOT 35  -44.722805876364    -6.133E-09 1.840E-09 2.206E-03
 ETOT 36  -44.722805876288     7.581E-11 3.339E-09 6.742E-04
 ETOT 37  -44.722805876155     1.337E-10 1.923E-09 4.705E-04
 ETOT 38  -44.722805876562    -4.075E-10 3.469E-09 3.590E-04
 ETOT 39  -44.722805876546     1.597E-11 1.982E-09 1.933E-04
 ETOT 40  -44.722805876550    -3.659E-12 3.556E-09 8.032E-05

 At SCF step   40, etot is converged : 
  for the second time, diff in etot=  3.659E-12 < toldfe=  1.000E-10

 Cartesian components of stress tensor (hartree/bohr^3)
  sigma(1 1)= -1.22767608E-09  sigma(3 2)=  0.00000000E+00
  sigma(2 2)= -1.27984600E-08  sigma(3 1)=  0.00000000E+00
  sigma(3 3)= -7.63705682E-10  sigma(2 1)=  0.00000000E+00


--- !ResultsGS
iteration_state: {dtset: 1, }
comment   : Summary of ground state results
lattice_vectors:
- [120.0000000,   0.0000000,   0.0000000, ]
- [  0.0000000, 120.0000000,   0.0000000, ]
- [  0.0000000,   0.0000000, 120.0000000, ]
lattice_lengths: [ 120.00000,  120.00000,  120.00000, ]
lattice_angles: [ 90.000,  90.000,  90.000, ] # degrees, (23, 13, 12)
lattice_volume:   1.7280000E+06
convergence: {deltae: -3.659E-12, res2:  8.032E-05, residm:  3.556E-09, diffor: null, }
etotal    :  -4.47228059E+01
entropy   :   0.00000000E+00
fermie    :  -2.13146338E-01
cartesian_stress_tensor: # hartree/bohr^3
- [ -1.22767608E-09,   0.00000000E+00,   0.00000000E+00, ]
- [  0.00000000E+00,  -1.27984600E-08,   0.00000000E+00, ]
- [  0.00000000E+00,   0.00000000E+00,  -7.63705682E-10, ]
pressure_GPa:   1.4504E-04
xred      :
- [  0.0000E+00,   0.0000E+00,   4.2456E-03,  O]
- [  0.0000E+00,   1.8433E-02,  -8.1636E-03,  C]
- [  0.0000E+00,  -1.8433E-02,  -8.1636E-03,  C]
- [  0.0000E+00,   3.7347E-02,   6.4282E-03,  C]
- [  0.0000E+00,  -3.7347E-02,   6.4282E-03,  C]
- [ -1.3982E-02,   1.8693E-02,  -1.8387E-02,  H]
- [  1.3982E-02,   1.8693E-02,  -1.8387E-02,  H]
- [  1.3982E-02,  -1.8693E-02,  -1.8387E-02,  H]
- [ -1.3982E-02,  -1.8693E-02,  -1.8387E-02,  H]
- [  0.0000E+00,   5.1906E-02,  -2.7228E-03,  H]
- [  0.0000E+00,  -5.1906E-02,  -2.7228E-03,  H]
- [  1.3921E-02,   3.7089E-02,   1.6466E-02,  H]
- [ -1.3921E-02,   3.7089E-02,   1.6466E-02,  H]
- [ -1.3921E-02,  -3.7089E-02,   1.6466E-02,  H]
- [  1.3921E-02,  -3.7089E-02,   1.6466E-02,  H]
cartesian_forces: # hartree/bohr
- [ -5.78241159E-20,  -0.00000000E+00,   6.19765383E-03, ]
- [ -5.78241159E-20,   8.21197431E-03,   3.74269905E-03, ]
- [ -5.78241159E-20,  -8.21197431E-03,   3.74269905E-03, ]
- [ -5.78241159E-20,  -3.19339120E-03,  -3.95046598E-03, ]
- [ -5.78241159E-20,   3.19339120E-03,  -3.95046598E-03, ]
- [ -3.80578944E-03,  -1.17765510E-04,  -3.75958069E-03, ]
- [  3.80578944E-03,  -1.17765510E-04,  -3.75958069E-03, ]
- [  3.80578944E-03,   1.17765510E-04,  -3.75958069E-03, ]
- [ -3.80578944E-03,   1.17765510E-04,  -3.75958069E-03, ]
- [ -5.78241159E-20,   3.70127221E-03,  -1.39697438E-03, ]
- [ -5.78241159E-20,  -3.70127221E-03,  -1.39697438E-03, ]
- [  4.00945084E-03,   7.35033019E-04,   3.01253789E-03, ]
- [ -4.00945084E-03,   7.35033019E-04,   3.01253789E-03, ]
- [ -4.00945084E-03,  -7.35033019E-04,   3.01253789E-03, ]
- [  4.00945084E-03,  -7.35033019E-04,   3.01253789E-03, ]
force_length_stats: {min:   3.95612859E-03, max:   9.02465059E-03, mean:   5.59980420E-03, }
...

 Integrated electronic density in atomic spheres:
 ------------------------------------------------
 Atom  Sphere_radius  Integrated_density
    1        2.00000          6.63510092
    2        2.00000          4.79018019
    3        2.00000          4.79018019
    4        2.00000          4.64444241
    5        2.00000          4.64444241
    6        2.00000          2.06789398
    7        2.00000          2.06789398
    8        2.00000          2.06789398
    9        2.00000          2.06789398
   10        2.00000          2.07391440
   11        2.00000          2.07391440
   12        2.00000          2.08252627
   13        2.00000          2.08252627
   14        2.00000          2.08252627
   15        2.00000          2.08252627
================================================================================

 ----iterations are completed or convergence reached----

 Mean square residual over all n,k,spin=   71.156E-12; max=  35.561E-10
 reduced coordinates (array xred) for   15 atoms
       0.000000000000      0.000000000000      0.004245584388
       0.000000000000      0.018432702247     -0.008163616271
       0.000000000000     -0.018432702247     -0.008163616271
       0.000000000000      0.037347284621      0.006428217905
       0.000000000000     -0.037347284621      0.006428217905
      -0.013982397544      0.018692539571     -0.018387033869
       0.013982397544      0.018692539571     -0.018387033869
       0.013982397544     -0.018692539571     -0.018387033869
      -0.013982397544     -0.018692539571     -0.018387033869
       0.000000000000      0.051906048592     -0.002722780195
       0.000000000000     -0.051906048592     -0.002722780195
       0.013920981449      0.037089022070      0.016465812447
      -0.013920981449      0.037089022070      0.016465812447
      -0.013920981449     -0.037089022070      0.016465812447
       0.013920981449     -0.037089022070      0.016465812447
 rms dE/dt=  4.0061E-01; max dE/dt=  9.8544E-01; dE/dt below (all hartree)
    1       0.000000000000      0.000000000000     -0.738020542756
    2      -0.000000000000     -0.985436917534     -0.443425968910
    3       0.000000000000      0.985436917534     -0.443425968910
    4       0.000000000000      0.383206943723      0.479753833653
    5       0.000000000000     -0.383206943723      0.479753833653
    6       0.456694732469      0.014131861198      0.456847599115
    7      -0.456694732469      0.014131861198      0.456847599115
    8      -0.456694732469     -0.014131861198      0.456847599115
    9       0.456694732469     -0.014131861198      0.456847599115
   10       0.000000000000     -0.444152665707      0.173334842116
   11       0.000000000000      0.444152665707      0.173334842116
   12      -0.481134101126     -0.088203962242     -0.355806629915
   13       0.481134101126     -0.088203962242     -0.355806629915
   14       0.481134101126      0.088203962242     -0.355806629915
   15      -0.481134101126      0.088203962242     -0.355806629915

 cartesian coordinates (angstrom) at end:
    1      0.00000000000000     0.00000000000000     0.26959997941532
    2      0.00000000000000     1.17049991062920    -0.51839996041877
    3      0.00000000000000    -1.17049991062920    -0.51839996041877
    4      0.00000000000000     2.37159981892200     0.40819996883284
    5      0.00000000000000    -2.37159981892200     0.40819996883284
    6     -0.88789993220646     1.18699990936938    -1.16759991085062
    7      0.88789993220646     1.18699990936938    -1.16759991085062
    8      0.88789993220646    -1.18699990936938    -1.16759991085062
    9     -0.88789993220646    -1.18699990936938    -1.16759991085062
   10      0.00000000000000     3.29609974833395    -0.17289998679862
   11      0.00000000000000    -3.29609974833395    -0.17289998679862
   12      0.88399993250424     2.35519982017418     1.04559992016564
   13     -0.88399993250424     2.35519982017418     1.04559992016564
   14     -0.88399993250424    -2.35519982017418     1.04559992016564
   15      0.88399993250424    -2.35519982017418     1.04559992016564

 cartesian forces (hartree/bohr) at end:
    1     -0.00000000000000    -0.00000000000000     0.00619765382728
    2     -0.00000000000000     0.00821197431278     0.00374269904523
    3     -0.00000000000000    -0.00821197431278     0.00374269904523
    4     -0.00000000000000    -0.00319339119769    -0.00395046597613
    5     -0.00000000000000     0.00319339119769    -0.00395046597613
    6     -0.00380578943724    -0.00011776550999    -0.00375958068831
    7      0.00380578943724    -0.00011776550999    -0.00375958068831
    8      0.00380578943724     0.00011776550999    -0.00375958068831
    9     -0.00380578943724     0.00011776550999    -0.00375958068831
   10     -0.00000000000000     0.00370127221422    -0.00139697437999
   11     -0.00000000000000    -0.00370127221422    -0.00139697437999
   12      0.00400945084271     0.00073503301869     0.00301253788694
   13     -0.00400945084271     0.00073503301869     0.00301253788694
   14     -0.00400945084271    -0.00073503301869     0.00301253788694
   15      0.00400945084271    -0.00073503301869     0.00301253788694
 frms,max,avg= 3.3383433E-03 8.2119743E-03   0.000E+00  0.000E+00 -4.748E-05 h/b

 cartesian forces (eV/Angstrom) at end:
    1     -0.00000000000000    -0.00000000000000     0.31869614674993
    2     -0.00000000000000     0.42227666204494     0.19245730681316
    3     -0.00000000000000    -0.42227666204494     0.19245730681316
    4     -0.00000000000000    -0.16421076396516    -0.20314111106315
    5     -0.00000000000000     0.16421076396516    -0.20314111106315
    6     -0.19570154493807    -0.00605574549633    -0.19332539573077
    7      0.19570154493807    -0.00605574549633    -0.19332539573077
    8      0.19570154493807     0.00605574549633    -0.19332539573077
    9     -0.19570154493807     0.00605574549633    -0.19332539573077
   10     -0.00000000000000     0.19032705369149    -0.07183530484585
   11     -0.00000000000000    -0.19032705369149    -0.07183530484585
   12      0.20617423460019     0.03779691433521     0.15491091359121
   13     -0.20617423460019     0.03779691433521     0.15491091359121
   14     -0.20617423460019    -0.03779691433521     0.15491091359121
   15      0.20617423460019    -0.03779691433521     0.15491091359121
 frms,max,avg= 1.7166450E-01 4.2227666E-01   0.000E+00  0.000E+00 -2.442E-03 e/A
 length scales=120.000000000000120.000000000000120.000000000000 bohr
              = 63.501265030800 63.501265030800 63.501265030800 angstroms
 prteigrs : about to open file final_calculationo_EIG
 Fermi (or HOMO) energy (hartree) =  -0.21315   Average Vxc (hartree)=  -0.00043
 Eigenvalues (hartree) for nkpt=   1  k points:
 kpt#   1, nband= 50, wtk=  1.00000, kpt=  0.0000  0.0000  0.0000 (reduced coord)
  -0.95194   -0.70559   -0.65654   -0.55729   -0.54115   -0.44779   -0.43774   -0.39396
  -0.38544   -0.35101   -0.33049   -0.32927   -0.31131   -0.29927   -0.27635   -0.21315
  -0.01936   -0.00707   -0.00210   -0.00002    0.00018    0.00130    0.00130    0.00134
   0.00134    0.00148    0.00155    0.00264    0.00265    0.00265    0.00266    0.00267
   0.00268    0.00268    0.00269    0.00279    0.00280    0.00299    0.00319    0.00401
   0.00402    0.00403    0.00404    0.00415    0.00415    0.00426    0.00444    0.00536
   0.00539    0.00549

--- !EnergyTerms
iteration_state     : {dtset: 1, }
comment             : Components of total free energy in Hartree
kinetic             :  3.57772831335981E+01
hartree             :  1.33212442367666E+02
xc                  : -1.41379870647132E+01
Ewald energy        :  9.86636105713899E+01
psp_core            : -9.97131654413014E-07
local_psp           : -3.01148099914131E+02
non_local_psp       :  2.90994602677217E+00
total_energy        : -4.47228058765497E+01
total_energy_eV     : -1.21696943800306E+03
band_energy         : -1.43765659361229E+01
...


 Cartesian components of stress tensor (hartree/bohr^3)
  sigma(1 1)= -1.22767608E-09  sigma(3 2)=  0.00000000E+00
  sigma(2 2)= -1.27984600E-08  sigma(3 1)=  0.00000000E+00
  sigma(3 3)= -7.63705682E-10  sigma(2 1)=  0.00000000E+00

-Cartesian components of stress tensor (GPa)         [Pressure=  1.4504E-04 GPa]
- sigma(1 1)= -3.61194713E-05  sigma(3 2)=  0.00000000E+00
- sigma(2 2)= -3.76543630E-04  sigma(3 1)=  0.00000000E+00
- sigma(3 3)= -2.24689931E-05  sigma(2 1)=  0.00000000E+00

== END DATASET(S) ==============================================================
================================================================================
  
 -outvars: echo values of variables after computation  --------
            acell      1.2000000000E+02  1.2000000000E+02  1.2000000000E+02 Bohr
              amu      1.59994000E+01  1.20110000E+01  1.00794000E+00
      chksymbreak           0
      chksymtnons           0
           diemac      2.00000000E+00
             ecut      8.00000000E+01 Hartree
           etotal     -4.4722805877E+01
            fcart     -5.7824115866E-20 -0.0000000000E+00  6.1976538273E-03
                      -5.7824115865E-20  8.2119743128E-03  3.7426990452E-03
                      -5.7824115866E-20 -8.2119743128E-03  3.7426990452E-03
                      -5.7824115866E-20 -3.1933911977E-03 -3.9504659761E-03
                      -5.7824115866E-20  3.1933911977E-03 -3.9504659761E-03
                      -3.8057894372E-03 -1.1776550999E-04 -3.7595806883E-03
                       3.8057894372E-03 -1.1776550999E-04 -3.7595806883E-03
                       3.8057894372E-03  1.1776550999E-04 -3.7595806883E-03
                      -3.8057894372E-03  1.1776550999E-04 -3.7595806883E-03
                      -5.7824115866E-20  3.7012722142E-03 -1.3969743800E-03
                      -5.7824115866E-20 -3.7012722142E-03 -1.3969743800E-03
                       4.0094508427E-03  7.3503301869E-04  3.0125378869E-03
                      -4.0094508427E-03  7.3503301869E-04  3.0125378869E-03
                      -4.0094508427E-03 -7.3503301869E-04  3.0125378869E-03
                       4.0094508427E-03 -7.3503301869E-04  3.0125378869E-03
-          fftalg         312
           istwfk        2
              ixc          11
           kptopt           0
P           mkmem           1
            natom          15
            nband          50
            ngfft         972     972     972
             nkpt           1
            nstep         100
             nsym           4
           ntypat           3
              occ      2.000000  2.000000  2.000000  2.000000  2.000000  2.000000
                       2.000000  2.000000  2.000000  2.000000  2.000000  2.000000
                       2.000000  2.000000  2.000000  2.000000  0.000000  0.000000
                       0.000000  0.000000  0.000000  0.000000  0.000000  0.000000
                       0.000000  0.000000  0.000000  0.000000  0.000000  0.000000
                       0.000000  0.000000  0.000000  0.000000  0.000000  0.000000
                       0.000000  0.000000  0.000000  0.000000  0.000000  0.000000
                       0.000000  0.000000  0.000000  0.000000  0.000000  0.000000
                       0.000000  0.000000
          spgroup          25
           strten     -1.2276760840E-09 -1.2798460002E-08 -7.6370568203E-10
                       0.0000000000E+00  0.0000000000E+00  0.0000000000E+00
           symrel      1  0  0   0  1  0   0  0  1       1  0  0   0 -1  0   0  0  1
                      -1  0  0   0 -1  0   0  0  1      -1  0  0   0  1  0   0  0  1
           toldfe      1.00000000E-10 Hartree
            typat      1  2  2  2  2  3  3  3  3  3  3  3  3  3  3
           xangst      0.0000000000E+00  0.0000000000E+00  2.6959997942E-01
                       0.0000000000E+00  1.1704999106E+00 -5.1839996042E-01
                       0.0000000000E+00 -1.1704999106E+00 -5.1839996042E-01
                       0.0000000000E+00  2.3715998189E+00  4.0819996883E-01
                       0.0000000000E+00 -2.3715998189E+00  4.0819996883E-01
                      -8.8789993221E-01  1.1869999094E+00 -1.1675999109E+00
                       8.8789993221E-01  1.1869999094E+00 -1.1675999109E+00
                       8.8789993221E-01 -1.1869999094E+00 -1.1675999109E+00
                      -8.8789993221E-01 -1.1869999094E+00 -1.1675999109E+00
                       0.0000000000E+00  3.2960997483E+00 -1.7289998680E-01
                       0.0000000000E+00 -3.2960997483E+00 -1.7289998680E-01
                       8.8399993250E-01  2.3551998202E+00  1.0455999202E+00
                      -8.8399993250E-01  2.3551998202E+00  1.0455999202E+00
                      -8.8399993250E-01 -2.3551998202E+00  1.0455999202E+00
                       8.8399993250E-01 -2.3551998202E+00  1.0455999202E+00
            xcart      0.0000000000E+00  0.0000000000E+00  5.0947012653E-01
                       0.0000000000E+00  2.2119242697E+00 -9.7963395249E-01
                       0.0000000000E+00 -2.2119242697E+00 -9.7963395249E-01
                       0.0000000000E+00  4.4816741546E+00  7.7138614855E-01
                       0.0000000000E+00 -4.4816741546E+00  7.7138614855E-01
                      -1.6778877053E+00  2.2431047485E+00 -2.2064440643E+00
                       1.6778877053E+00  2.2431047485E+00 -2.2064440643E+00
                       1.6778877053E+00 -2.2431047485E+00 -2.2064440643E+00
                      -1.6778877053E+00 -2.2431047485E+00 -2.2064440643E+00
                       0.0000000000E+00  6.2287258310E+00 -3.2673362343E-01
                       0.0000000000E+00 -6.2287258310E+00 -3.2673362343E-01
                       1.6705177739E+00  4.4506826484E+00  1.9758974937E+00
                      -1.6705177739E+00  4.4506826484E+00  1.9758974937E+00
                      -1.6705177739E+00 -4.4506826484E+00  1.9758974937E+00
                       1.6705177739E+00 -4.4506826484E+00  1.9758974937E+00
             xred      0.0000000000E+00  0.0000000000E+00  4.2455843877E-03
                       0.0000000000E+00  1.8432702247E-02 -8.1636162708E-03
                       0.0000000000E+00 -1.8432702247E-02 -8.1636162708E-03
                       0.0000000000E+00  3.7347284621E-02  6.4282179046E-03
                       0.0000000000E+00 -3.7347284621E-02  6.4282179046E-03
                      -1.3982397544E-02  1.8692539571E-02 -1.8387033869E-02
                       1.3982397544E-02  1.8692539571E-02 -1.8387033869E-02
                       1.3982397544E-02 -1.8692539571E-02 -1.8387033869E-02
                      -1.3982397544E-02 -1.8692539571E-02 -1.8387033869E-02
                       0.0000000000E+00  5.1906048592E-02 -2.7227801952E-03
                       0.0000000000E+00 -5.1906048592E-02 -2.7227801952E-03
                       1.3920981449E-02  3.7089022070E-02  1.6465812447E-02
                      -1.3920981449E-02  3.7089022070E-02  1.6465812447E-02
                      -1.3920981449E-02 -3.7089022070E-02  1.6465812447E-02
                       1.3920981449E-02 -3.7089022070E-02  1.6465812447E-02
            znucl        8.00000    6.00000    1.00000

================================================================================


- Timing analysis has been suppressed with timopt=0



================================================================================

 Suggested references for the acknowledgment of ABINIT usage.

 The users of ABINIT have little formal obligations with respect to the ABINIT group
 (those specified in the GNU General Public License, http://www.gnu.org/copyleft/gpl.txt).
 However, it is common practice in the scientific literature,
 to acknowledge the efforts of people that have made the research possible.
 In this spirit, please find below suggested citations of work written by ABINIT developers,
 corresponding to implementations inside of ABINIT that you have used in the present run.
 Note also that it will be of great value to readers of publications presenting these results,
 to read papers enabling them to understand the theoretical formalism and details
 of the ABINIT implementation.
 For information on why they are suggested, see also https://docs.abinit.org/theory/acknowledgments.
-
- [1] The Abinit project: Impact, environment and recent developments.
- Computer Phys. Comm. 248, 107042 (2020).
- X.Gonze, B. Amadon, G. Antonius, F.Arnardi, L.Baguet, J.-M.Beuken,
- J.Bieder, F.Bottin, J.Bouchet, E.Bousquet, N.Brouwer, F.Bruneval,
- G.Brunin, T.Cavignac, J.-B. Charraud, Wei Chen, M.Cote, S.Cottenier,
- J.Denier, G.Geneste, Ph.Ghosez, M.Giantomassi, Y.Gillet, O.Gingras,
- D.R.Hamann, G.Hautier, Xu He, N.Helbig, N.Holzwarth, Y.Jia, F.Jollet,
- W.Lafargue-Dit-Hauret, K.Lejaeghere, M.A.L.Marques, A.Martin, C.Martins,
- H.P.C. Miranda, F.Naccarato, K. Persson, G.Petretto, V.Planes, Y.Pouillon,
- S.Prokhorenko, F.Ricci, G.-M.Rignanese, A.H.Romero, M.M.Schmitt, M.Torrent,
- M.J.van Setten, B.Van Troeye, M.J.Verstraete, G.Zerah and J.W.Zwanzig
- Comment: the fifth generic paper describing the ABINIT project.
- Note that a version of this paper, that is not formatted for Computer Phys. Comm. 
- is available at https://www.abinit.org/sites/default/files/ABINIT20.pdf .
- The licence allows the authors to put it on the Web.
- DOI and bibtex: see https://docs.abinit.org/theory/bibliography/#gonze2020
-
- [2] ABINIT: Overview, and focus on selected capabilities
- J. Chem. Phys. 152, 124102 (2020).
- A. Romero, D.C. Allan, B. Amadon, G. Antonius, T. Applencourt, L.Baguet,
- J.Bieder, F.Bottin, J.Bouchet, E.Bousquet, F.Bruneval,
- G.Brunin, D.Caliste, M.Cote,
- J.Denier, C. Dreyer, Ph.Ghosez, M.Giantomassi, Y.Gillet, O.Gingras,
- D.R.Hamann, G.Hautier, F.Jollet, G. Jomard,
- A.Martin, 
- H.P.C. Miranda, F.Naccarato, G.Petretto, N.A. Pike, V.Planes,
- S.Prokhorenko, T. Rangel, F.Ricci, G.-M.Rignanese, M.Royo, M.Stengel, M.Torrent,
- M.J.van Setten, B.Van Troeye, M.J.Verstraete, J.Wiktor, J.W.Zwanziger, and X.Gonze.
- Comment: a global overview of ABINIT, with focus on selected capabilities .
- Note that a version of this paper, that is not formatted for J. Chem. Phys 
- is available at https://www.abinit.org/sites/default/files/ABINIT20_JPC.pdf .
- The licence allows the authors to put it on the Web.
- DOI and bibtex: see https://docs.abinit.org/theory/bibliography/#romero2020
-
- [3] Recent developments in the ABINIT software package.
- Computer Phys. Comm. 205, 106 (2016).
- X.Gonze, F.Jollet, F.Abreu Araujo, D.Adams, B.Amadon, T.Applencourt,
- C.Audouze, J.-M.Beuken, J.Bieder, A.Bokhanchuk, E.Bousquet, F.Bruneval
- D.Caliste, M.Cote, F.Dahm, F.Da Pieve, M.Delaveau, M.Di Gennaro,
- B.Dorado, C.Espejo, G.Geneste, L.Genovese, A.Gerossier, M.Giantomassi,
- Y.Gillet, D.R.Hamann, L.He, G.Jomard, J.Laflamme Janssen, S.Le Roux,
- A.Levitt, A.Lherbier, F.Liu, I.Lukacevic, A.Martin, C.Martins,
- M.J.T.Oliveira, S.Ponce, Y.Pouillon, T.Rangel, G.-M.Rignanese,
- A.H.Romero, B.Rousseau, O.Rubel, A.A.Shukri, M.Stankovski, M.Torrent,
- M.J.Van Setten, B.Van Troeye, M.J.Verstraete, D.Waroquier, J.Wiktor,
- B.Xu, A.Zhou, J.W.Zwanziger.
- Comment: the fourth generic paper describing the ABINIT project.
- Note that a version of this paper, that is not formatted for Computer Phys. Comm. 
- is available at https://www.abinit.org/sites/default/files/ABINIT16.pdf .
- The licence allows the authors to put it on the Web.
- DOI and bibtex: see https://docs.abinit.org/theory/bibliography/#gonze2016
-
- And optionally:
-
- [4] ABINIT: First-principles approach of materials and nanosystem properties.
- Computer Phys. Comm. 180, 2582-2615 (2009).
- X. Gonze, B. Amadon, P.-M. Anglade, J.-M. Beuken, F. Bottin, P. Boulanger, F. Bruneval,
- D. Caliste, R. Caracas, M. Cote, T. Deutsch, L. Genovese, Ph. Ghosez, M. Giantomassi
- S. Goedecker, D.R. Hamann, P. Hermet, F. Jollet, G. Jomard, S. Leroux, M. Mancini, S. Mazevet,
- M.J.T. Oliveira, G. Onida, Y. Pouillon, T. Rangel, G.-M. Rignanese, D. Sangalli, R. Shaltaf,
- M. Torrent, M.J. Verstraete, G. Zerah, J.W. Zwanziger
- Comment: the third generic paper describing the ABINIT project.
- Note that a version of this paper, that is not formatted for Computer Phys. Comm. 
- is available at https://www.abinit.org/sites/default/files/ABINIT_CPC_v10.pdf .
- The licence allows the authors to put it on the Web.
- DOI and bibtex: see https://docs.abinit.org/theory/bibliography/#gonze2009
-
- Proc.   0 individual time (sec): cpu=    1421067.8  wall=      77560.2

================================================================================

 Calculation completed.
.Delivered   0 WARNINGs and   7 COMMENTs to log file.
+Overall time at end (sec) : cpu=    1421067.8  wall=      77560.2
