
.Version 9.6.2 of ABINIT 
.(MPI version, prepared for a x86_64_linux_gnu11.3 computer) 

.Copyright (C) 1998-2021 ABINIT group . 
 ABINIT comes with ABSOLUTELY NO WARRANTY.
 It is free software, and you are welcome to redistribute it
 under certain conditions (GNU General Public License,
 see ~abinit/COPYING or http://www.gnu.org/copyleft/gpl.txt).

 ABINIT is a project of the Universite Catholique de Louvain,
 Corning Inc. and other collaborators, see ~abinit/doc/developers/contributors.txt .
 Please read https://docs.abinit.org/theory/acknowledgments for suggested
 acknowledgments of the ABINIT effort.
 For more information, see https://www.abinit.org .

.Starting date : Sat  3 Aug 2024.
- ( at 15h04 )
  
- The starting date is more than 2 years after the initial release
- of this version of ABINIT, namely Nov 2021.
- Note that the use beyond 3 years after the release will not be supported.
- Action: please, switch to a more recent version of ABINIT.

- input  file    -> final_calculation.abi
- output file    -> final_calculation.abo
- root for input  files -> final_calculationi
- root for output files -> final_calculationo


 Symmetries : space group P4 m m (# 99); Bravais tP (primitive tetrag.)
================================================================================
 Values of the parameters that define the memory need of the present run
     intxc =       0    ionmov =       0      iscf =       7    lmnmax =       2
     lnmax =       2     mgfft =     972  mpssoang =       2    mqgrid =   48317
     natom =       2  nloc_mem =       1    nspden =       1   nspinor =       1
    nsppol =       1      nsym =       8    n1xccc =       0    ntypat =       2
    occopt =       1   xclevel =       2
-    mband =          50        mffmem =           1         mkmem =           1
       mpw =    29528732          nfft =   918330048          nkpt =           1
================================================================================
P This job should need less than                  303153.079 Mbytes of memory.
  Rough estimation (10% accuracy) of disk space for files :
_ WF disk file :  22528.637 Mbytes ; DEN or POT disk file :  -1185.696 Mbytes.
================================================================================

--------------------------------------------------------------------------------
------------- Echo of variables that govern the present computation ------------
--------------------------------------------------------------------------------
-
- outvars: echo of selected default values                                      
-   iomode0 =  0 , fftalg0 =312 , wfoptalg0 =  0
-
- outvars: echo of global parameters not present in the input file              
-  max_nthreads =   64
-
 -outvars: echo values of preprocessed input variables --------
            acell      1.2000000000E+02  1.2000000000E+02  1.2000000000E+02 Bohr
              amu      2.43050000E+01  1.59994000E+01
      chksymbreak           0
      chksymtnons           0
           diemac      2.00000000E+00
             ecut      8.00000000E+01 Hartree
-          fftalg         312
           istwfk        2
              ixc          11
           kptopt           0
P           mkmem           1
            natom           2
            nband          50
            ngfft         972     972     972
             nkpt           1
            nstep         100
             nsym           8
           ntypat           2
              occ      2.000000  2.000000  2.000000  2.000000  2.000000  2.000000
                       2.000000  2.000000  0.000000  0.000000  0.000000  0.000000
                       0.000000  0.000000  0.000000  0.000000  0.000000  0.000000
                       0.000000  0.000000  0.000000  0.000000  0.000000  0.000000
                       0.000000  0.000000  0.000000  0.000000  0.000000  0.000000
                       0.000000  0.000000  0.000000  0.000000  0.000000  0.000000
                       0.000000  0.000000  0.000000  0.000000  0.000000  0.000000
                       0.000000  0.000000  0.000000  0.000000  0.000000  0.000000
                       0.000000  0.000000
          spgroup          99
           symrel      1  0  0   0  1  0   0  0  1       1  0  0   0 -1  0   0  0  1
                      -1  0  0   0 -1  0   0  0  1      -1  0  0   0  1  0   0  0  1
                       0  1  0   1  0  0   0  0  1       0  1  0  -1  0  0   0  0  1
                       0 -1  0  -1  0  0   0  0  1       0 -1  0   1  0  0   0  0  1
           toldfe      1.00000000E-10 Hartree
            typat      1  2
           xangst      0.0000000000E+00  0.0000000000E+00  0.0000000000E+00
                       0.0000000000E+00  0.0000000000E+00  1.7489998665E+00
            xcart      0.0000000000E+00  0.0000000000E+00  0.0000000000E+00
                       0.0000000000E+00  0.0000000000E+00  3.3051307541E+00
             xred      0.0000000000E+00  0.0000000000E+00  0.0000000000E+00
                       0.0000000000E+00  0.0000000000E+00  2.7542756284E-02
            znucl       12.00000    8.00000

================================================================================

 chkinp: Checking input parameters for consistency.

================================================================================
== DATASET  1 ==================================================================
-   mpi_nproc: 1, omp_nthreads: 64 (-1 if OMP is not activated)


--- !DatasetInfo
iteration_state: {dtset: 1, }
dimensions: {natom: 2, nkpt: 1, mband: 50, nsppol: 1, nspinor: 1, nspden: 1, mpw: 29528732, }
cutoff_energies: {ecut:  80.0, pawecutdg:  -1.0, }
electrons: {nelect:   1.60000000E+01, charge:   0.00000000E+00, occopt:   1.00000000E+00, tsmear:   1.00000000E-02, }
meta: {optdriver: 0, ionmov: 0, optcell: 0, iscf: 7, paral_kgb: 0, }
...

 Exchange-correlation functional for the present dataset will be:
  GGA: Perdew-Burke-Ernzerhof functional - ixc=11
 Citation for XC functional:
  J.P.Perdew, K.Burke, M.Ernzerhof, PRL 77, 3865 (1996)

 Real(R)+Recip(G) space primitive vectors, cartesian coordinates (Bohr,Bohr^-1):
 R(1)=120.0000000  0.0000000  0.0000000  G(1)=  0.0083333  0.0000000  0.0000000
 R(2)=  0.0000000120.0000000  0.0000000  G(2)=  0.0000000  0.0083333  0.0000000
 R(3)=  0.0000000  0.0000000120.0000000  G(3)=  0.0000000  0.0000000  0.0083333
 Unit cell volume ucvol=  1.7280000E+06 bohr^3
 Angles (23,13,12)=  9.00000000E+01  9.00000000E+01  9.00000000E+01 degrees

 getcut: wavevector=  0.0000  0.0000  0.0000  ngfft= 972 972 972
         ecut(hartree)=     80.000   => boxcut(ratio)=   2.01175

--- Pseudopotential description ------------------------------------------------
- pspini: atom type   1  psp file is /pc2/groups/hpc-prf-metdyn/epop2d10_Lukas/Pseudos/GTH/Mg-q10
- pspatm: opening atomic psp file    /pc2/groups/hpc-prf-metdyn/epop2d10_Lukas/Pseudos/GTH/Mg-q10
- Goedecker pseudopotential for Mg
- 12.00000  10.00000     70301                znucl, zion, pspdat
   10   11    1    2      2001   0.00000      pspcod,pspxc,lmax,lloc,mmax,r2well
 rloc=   0.1927579
 cc(1:2)= -20.5753908   3.0401673
 for angular momentum l =  0 r(l) =   0.1414068
   h11, h12, h13 =  41.0472921   0.0000000   0.0000000
        h22, h23 =               0.0000000   0.0000000
             h33 =                           0.0000000
 for angular momentum l =  1 r(l) =   0.1029319
   h11, h12, h13 =  -9.9856257   0.0000000   0.0000000
        h22, h23 =               0.0000000   0.0000000
             h33 =                           0.0000000
   k11, k12, k13 =   0.1030830   0.0000000   0.0000000
        k22, k23 =               0.0000000   0.0000000
             k33 =                           0.0000000
-  Local part computed in reciprocal space.

 pspatm : COMMENT -
  the projectors are not normalized,
  so that the KB energies are not consistent with 
  definition in PRB44, 8503 (1991). 
  However, this does not influence the results obtained hereafter.
  pspatm : epsatm=    1.04245227
         --- l  ekb(1:nproj) -->
             0    0.411434
             1   -0.000818
 pspatm: atomic psp has been read  and splines computed

- pspini: atom type   2  psp file is /pc2/groups/hpc-prf-metdyn/epop2d10_Lukas/Pseudos/GTH/O-q6
- pspatm: opening atomic psp file    /pc2/groups/hpc-prf-metdyn/epop2d10_Lukas/Pseudos/GTH/O-q6
- Goedecker pseudopotential for O
-  8.00000   6.00000     70301                znucl, zion, pspdat
   10   11    1    2      2001   0.00000      pspcod,pspxc,lmax,lloc,mmax,r2well
 rloc=   0.2445543
 cc(1:2)= -16.6672148   2.4873113
 for angular momentum l =  0 r(l) =   0.2209559
   h11, h12, h13 =  18.3374581   0.0000000   0.0000000
        h22, h23 =               0.0000000   0.0000000
             h33 =                           0.0000000
 for angular momentum l =  1 r(l) =   0.2113325
   h11, h12, h13 =   0.0000000   0.0000000   0.0000000
        h22, h23 =               0.0000000   0.0000000
             h33 =                           0.0000000
   k11, k12, k13 =   0.0075593   0.0000000   0.0000000
        k22, k23 =               0.0000000   0.0000000
             k33 =                           0.0000000
-  Local part computed in reciprocal space.

 pspatm : COMMENT -
  the projectors are not normalized,
  so that the KB energies are not consistent with 
  definition in PRB44, 8503 (1991). 
  However, this does not influence the results obtained hereafter.
  pspatm : epsatm=    0.13419041
         --- l  ekb(1:nproj) -->
             0    0.701231
             1    0.000000
 pspatm: atomic psp has been read  and splines computed

   1.88262829E+01                                ecore*ucvol(ha*bohr**3)
--------------------------------------------------------------------------------

_setup2: Arith. and geom. avg. npw (full set) are59057463.00059057463.000

================================================================================

--- !BeginCycle
iteration_state: {dtset: 1, }
solver: {iscf: 7, nstep: 100, nline: 4, wfoptalg: 0, }
tolerances: {toldfe: 1.00E-10, }
...

     iter   Etot(hartree)      deltaE(h)  residm     vres2
 ETOT  1  -23.685642107921    -2.369E+01 5.126E-01 1.485E+07
 ETOT  2  -62.930965685833    -3.925E+01 6.285E+00 4.047E+06
 ETOT  3  -72.108882546160    -9.178E+00 9.192E+00 3.484E+06
 ETOT  4  -73.265920129160    -1.157E+00 1.061E+00 1.892E+06
 ETOT  5  -76.285994636921    -3.020E+00 6.124E-02 1.264E+06
 ETOT  6  -76.536096792670    -2.501E-01 4.176E-03 1.039E+06
 ETOT  7  -76.930462987078    -3.944E-01 4.126E-03 8.126E+05
 ETOT  8  -77.452347329266    -5.219E-01 9.263E-03 4.924E+05
 ETOT  9  -77.574976671449    -1.226E-01 1.388E-03 3.732E+05
 ETOT 10  -70.249027454223     7.326E+00 6.119E-02 1.055E+06
 ETOT 11  -77.689588223023    -7.441E+00 7.646E-02 2.866E+05
 ETOT 12  -77.794576723042    -1.050E-01 6.346E-04 2.197E+04
 ETOT 13  -77.823032930146    -2.846E-02 1.265E-03 1.036E+04
 ETOT 14  -77.694756979164     1.283E-01 2.446E-03 1.050E+04
 ETOT 15  -77.506293106265     1.885E-01 1.569E-03 1.615E+04
 ETOT 16  -77.872679502371    -3.664E-01 1.100E-03 2.854E+03
 ETOT 17  -77.875964105662    -3.285E-03 8.259E-06 2.076E+03
 ETOT 18  -77.876418734194    -4.546E-04 2.599E-05 1.737E+03
 ETOT 19  -77.870011599119     6.407E-03 6.410E-06 1.632E+03
 ETOT 20  -77.882297684362    -1.229E-02 2.441E-05 7.463E+02
 ETOT 21  -77.880660116351     1.638E-03 1.745E-06 3.855E+02
 ETOT 22  -77.882119352101    -1.459E-03 1.452E-06 2.357E+02
 ETOT 23  -77.882488873045    -3.695E-04 3.468E-06 3.608E+02
 ETOT 24  -77.862231785854     2.026E-02 3.549E-05 1.349E+03
 ETOT 25  -77.882681245368    -2.045E-02 4.608E-05 2.441E+02
 ETOT 26  -77.882367138974     3.141E-04 6.298E-07 2.569E+02
 ETOT 27  -77.882549719722    -1.826E-04 2.187E-06 1.508E+02
 ETOT 28  -77.881812542198     7.372E-04 8.163E-07 1.729E+02
 ETOT 29  -77.881745400701     6.714E-05 4.169E-09 1.481E+02
 ETOT 30  -77.881008092412     7.373E-04 2.765E-07 2.230E+02
 ETOT 31  -77.882382342953    -1.374E-03 1.406E-06 1.226E+02
 ETOT 32  -77.882632687657    -2.503E-04 2.597E-07 1.338E+02
 ETOT 33  -77.872814445970     9.818E-03 2.494E-05 8.169E+02
 ETOT 34  -77.882394980963    -9.581E-03 1.574E-05 2.125E+02
 ETOT 35  -77.882411070281    -1.609E-05 2.185E-08 1.955E+02
 ETOT 36  -77.882466283244    -5.521E-05 6.794E-09 1.650E+02
 ETOT 37  -77.882466839715    -5.565E-07 2.871E-11 1.639E+02
 ETOT 38  -77.882492289982    -2.545E-05 1.850E-09 1.530E+02
 ETOT 39  -77.880325065162     2.167E-03 1.009E-05 3.472E+02
 ETOT 40  -77.882674964058    -2.350E-03 6.583E-06 1.102E+02
 ETOT 41  -77.882552005772     1.230E-04 5.516E-07 1.632E+02
 ETOT 42  -77.878465094039     4.087E-03 1.334E-05 5.011E+02
 ETOT 43  -77.882194590836    -3.729E-03 4.292E-06 1.854E+02
 ETOT 44  -77.882302780028    -1.082E-04 1.534E-08 1.467E+02
 ETOT 45  -77.882339212052    -3.643E-05 2.197E-09 1.350E+02
 ETOT 46  -77.882380668718    -4.146E-05 3.101E-09 1.221E+02
 ETOT 47  -77.882350064042     3.060E-05 1.711E-09 1.276E+02
 ETOT 48  -77.879159231033     3.191E-03 1.579E-05 5.082E+02
 ETOT 49  -77.882623203765    -3.464E-03 1.106E-05 9.814E+01
 ETOT 50  -77.882656509858    -3.331E-05 4.448E-07 1.803E+02
 ETOT 51  -77.881840073603     8.164E-04 2.822E-06 2.177E+02
 ETOT 52  -77.882431041507    -5.910E-04 4.106E-07 6.897E+01
 ETOT 53  -77.882575240591    -1.442E-04 7.051E-08 5.180E+01
 ETOT 54  -77.882573703249     1.537E-06 1.001E-10 4.116E+01
 ETOT 55  -77.882637872943    -6.417E-05 3.207E-08 4.677E+01
 ETOT 56  -77.882653950159    -1.608E-05 3.939E-09 4.597E+01
 ETOT 57  -77.879436842719     3.217E-03 1.027E-05 5.321E+02
 ETOT 58  -77.882681625246    -3.245E-03 8.563E-06 8.541E+01
 ETOT 59  -77.882678302297     3.323E-06 5.661E-08 1.025E+02
 ETOT 60  -77.882681959896    -3.658E-06 5.362E-08 5.954E+01
 ETOT 61  -77.882574177244     1.078E-04 1.785E-07 2.424E+01
 ETOT 62  -77.882674627082    -1.004E-04 1.266E-07 5.080E+01
 ETOT 63  -77.882681526988    -6.900E-06 3.905E-09 5.426E+01
 ETOT 64  -77.882685666361    -4.139E-06 7.508E-09 6.609E+01
 ETOT 65  -77.882685433334     2.330E-07 1.751E-10 6.317E+01
 ETOT 66  -77.880654915560     2.031E-03 5.368E-06 4.458E+02
 ETOT 67  -77.882579683449    -1.925E-03 3.020E-06 1.738E+02
 ETOT 68  -77.882556308193     2.338E-05 3.182E-09 1.681E+02
 ETOT 69  -77.882580730887    -2.442E-05 3.074E-09 1.561E+02
 ETOT 70  -77.881985890746     5.948E-04 3.185E-06 2.550E+02
 ETOT 71  -77.882315768463    -3.299E-04 5.175E-06 2.170E+02
 ETOT 72  -77.882532362888    -2.166E-04 1.188E-07 1.531E+02
 ETOT 73  -77.882636923333    -1.046E-04 7.137E-08 8.804E+01
 ETOT 74  -77.882609794813     2.713E-05 5.933E-07 1.143E+02
 ETOT 75  -77.882114267890     4.955E-04 2.658E-06 2.200E+02
 ETOT 76  -77.882496825912    -3.826E-04 2.589E-07 1.280E+02
 ETOT 77  -77.882584186854    -8.736E-05 3.281E-08 7.281E+01
 ETOT 78  -77.882637023613    -5.284E-05 2.371E-08 4.146E+01
 ETOT 79  -77.882162837680     4.742E-04 2.116E-06 2.282E+02
 ETOT 80  -77.882683619118    -5.208E-04 1.436E-06 4.481E+01
 ETOT 81  -77.882683850099    -2.310E-07 1.785E-09 3.695E+01
 ETOT 82  -77.882683805247     4.485E-08 3.250E-12 3.611E+01
 ETOT 83  -77.882683745806     5.944E-08 1.910E-08 4.230E+01
 ETOT 84  -77.882615928601     6.782E-05 2.342E-07 4.207E+01
 ETOT 85  -77.882653107931    -3.718E-05 1.725E-08 2.526E+01
 ETOT 86  -77.882678196736    -2.509E-05 2.134E-08 2.023E+01
 ETOT 87  -77.882681742409    -3.546E-06 1.367E-09 2.026E+01
 ETOT 88  -77.882085264862     5.965E-04 1.663E-06 2.909E+02
 ETOT 89  -77.882676985517    -5.917E-04 1.832E-06 2.922E+01
 ETOT 90  -77.882675222505     1.763E-06 2.621E-09 1.774E+01
 ETOT 91  -77.882663106073     1.212E-05 5.528E-09 1.891E+01
 ETOT 92  -77.882679367384    -1.626E-05 1.212E-08 1.680E+01
 ETOT 93  -77.882677896554     1.471E-06 1.955E-10 1.372E+01
 ETOT 94  -77.882683800070    -5.904E-06 4.830E-09 1.824E+01
 ETOT 95  -77.882684807540    -1.007E-06 4.429E-10 1.947E+01
 ETOT 96  -77.882685451934    -6.444E-07 4.330E-10 2.098E+01
