
.Version 9.6.2 of ABINIT 
.(MPI version, prepared for a x86_64_linux_gnu11.3 computer) 

.Copyright (C) 1998-2021 ABINIT group . 
 ABINIT comes with ABSOLUTELY NO WARRANTY.
 It is free software, and you are welcome to redistribute it
 under certain conditions (GNU General Public License,
 see ~abinit/COPYING or http://www.gnu.org/copyleft/gpl.txt).

 ABINIT is a project of the Universite Catholique de Louvain,
 Corning Inc. and other collaborators, see ~abinit/doc/developers/contributors.txt .
 Please read https://docs.abinit.org/theory/acknowledgments for suggested
 acknowledgments of the ABINIT effort.
 For more information, see https://www.abinit.org .

.Starting date : Sat  3 Aug 2024.
- ( at 23h56 )
  
- The starting date is more than 2 years after the initial release
- of this version of ABINIT, namely Nov 2021.
- Note that the use beyond 3 years after the release will not be supported.
- Action: please, switch to a more recent version of ABINIT.

- input  file    -> final_calculation.abi
- output file    -> final_calculation.abo
- root for input  files -> final_calculationi
- root for output files -> final_calculationo


 Symmetries : space group Pm (#  6); Bravais mP (primitive monocl.)
================================================================================
 Values of the parameters that define the memory need of the present run
     intxc =       0    ionmov =       0      iscf =       7    lmnmax =       2
     lnmax =       2     mgfft =     972  mpssoang =       2    mqgrid =   48317
     natom =      12  nloc_mem =       1    nspden =       1   nspinor =       1
    nsppol =       1      nsym =       2    n1xccc =       0    ntypat =       4
    occopt =       1   xclevel =       2
-    mband =          50        mffmem =           1         mkmem =           1
       mpw =    29528732          nfft =   918330048          nkpt =           1
================================================================================
P This job should need less than                  303953.470 Mbytes of memory.
  Rough estimation (10% accuracy) of disk space for files :
_ WF disk file :  22528.637 Mbytes ; DEN or POT disk file :  -1185.696 Mbytes.
================================================================================

--------------------------------------------------------------------------------
------------- Echo of variables that govern the present computation ------------
--------------------------------------------------------------------------------
-
- outvars: echo of selected default values                                      
-   iomode0 =  0 , fftalg0 =312 , wfoptalg0 =  0
-
- outvars: echo of global parameters not present in the input file              
-  max_nthreads =   64
-
 -outvars: echo values of preprocessed input variables --------
            acell      1.2000000000E+02  1.2000000000E+02  1.2000000000E+02 Bohr
              amu      1.00794000E+00  1.20110000E+01  1.59994000E+01
                       1.40067400E+01
      chksymbreak           0
      chksymtnons           0
           diemac      2.00000000E+00
             ecut      8.00000000E+01 Hartree
-          fftalg         312
           istwfk        2
              ixc          11
           kptopt           0
P           mkmem           1
            natom          12
            nband          50
            ngfft         972     972     972
             nkpt           1
            nstep         100
             nsym           2
           ntypat           4
              occ      2.000000  2.000000  2.000000  2.000000  2.000000  2.000000
                       2.000000  2.000000  2.000000  2.000000  2.000000  2.000000
                       2.000000  2.000000  2.000000  2.000000  2.000000  2.000000
                       2.000000  2.000000  2.000000  0.000000  0.000000  0.000000
                       0.000000  0.000000  0.000000  0.000000  0.000000  0.000000
                       0.000000  0.000000  0.000000  0.000000  0.000000  0.000000
                       0.000000  0.000000  0.000000  0.000000  0.000000  0.000000
                       0.000000  0.000000  0.000000  0.000000  0.000000  0.000000
                       0.000000  0.000000
          spgroup           6
           symrel      1  0  0   0  1  0   0  0  1       1  0  0   0 -1  0   0  0  1
            tnons      0.0000000  0.0000000  0.0000000     0.0000000 -0.0000000  0.0000000
           toldfe      1.00000000E-10 Hartree
            typat      1  2  2  1  2  3  4  1  2  3  4  1
           xangst      1.7181111688E+00 -9.9999992365E-08 -2.1244325378E+00
                       1.1438666127E+00 -9.9999992365E-08 -1.2038068081E+00
                       1.7446078668E+00 -9.9999992365E-08  9.7510992555E-03
                       2.8271209841E+00 -9.9999992365E-08  1.2982399009E-01
                      -3.0901447641E-01 -9.9999992365E-08 -1.2970090010E+00
                      -9.7251272575E-01 -9.9999992365E-08 -2.3249910225E+00
                      -9.5237462728E-01 -9.9999992365E-08 -3.4322697379E-02
                      -1.9701791496E+00 -9.9999992365E-08 -5.1115996097E-02
                      -3.7513677136E-01 -9.9999992365E-08  1.2248795065E+00
                      -9.9918322371E-01 -9.9999992365E-08  2.2733351264E+00
                       1.0223979219E+00 -9.9999992365E-08  1.1766033102E+00
                       1.4813171869E+00 -9.9999992365E-08  2.0806651411E+00
            xcart      3.2467595749E+00 -1.8897259886E-07 -4.0145956842E+00
                       2.1615946305E+00 -1.8897259886E-07 -2.2748651842E+00
                       3.2968310775E+00 -1.8897259886E-07  1.8426907087E-02
                       5.3424844046E+00 -1.8897259886E-07  2.4533178674E-01
                      -5.8395273150E-01 -1.8897259886E-07 -2.4509918037E+00
                      -1.8377827124E+00 -1.8897259886E-07 -4.3935962939E+00
                      -1.7997272215E+00 -1.8897259886E-07 -6.4860498189E-02
                      -3.7230990254E+00 -1.8897259886E-07 -9.6595233633E-02
                      -7.0890576024E-01 -1.8897259886E-07  2.3146868130E+00
                      -1.8881826494E+00 -1.8897259886E-07  4.2959807972E+00
                       1.9320520713E+00 -1.8897259886E-07  2.2234580233E+00
                       2.7992837992E+00 -1.8897259886E-07  3.9318872910E+00
             xred      2.7056329791E-02 -1.5747716572E-09 -3.3454964035E-02
                       1.8013288587E-02 -1.5747716572E-09 -1.8957209868E-02
                       2.7473592313E-02 -1.5747716572E-09  1.5355755906E-04
                       4.4520703371E-02 -1.5747716572E-09  2.0444315562E-03
                      -4.8662727625E-03 -1.5747716572E-09 -2.0424931698E-02
                      -1.5314855937E-02 -1.5747716572E-09 -3.6613302449E-02
                      -1.4997726846E-02 -1.5747716572E-09 -5.4050415157E-04
                      -3.1025825212E-02 -1.5747716572E-09 -8.0496028028E-04
                      -5.9075480020E-03 -1.5747716572E-09  1.9289056775E-02
                      -1.5734855412E-02 -1.5747716572E-09  3.5799839977E-02
                       1.6100433927E-02 -1.5747716572E-09  1.8528816860E-02
                       2.3327364993E-02 -1.5747716572E-09  3.2765727425E-02
            znucl        1.00000    6.00000    8.00000    7.00000

================================================================================

 chkinp: Checking input parameters for consistency.

================================================================================
== DATASET  1 ==================================================================
-   mpi_nproc: 1, omp_nthreads: 64 (-1 if OMP is not activated)


--- !DatasetInfo
iteration_state: {dtset: 1, }
dimensions: {natom: 12, nkpt: 1, mband: 50, nsppol: 1, nspinor: 1, nspden: 1, mpw: 29528732, }
cutoff_energies: {ecut:  80.0, pawecutdg:  -1.0, }
electrons: {nelect:   4.20000000E+01, charge:   0.00000000E+00, occopt:   1.00000000E+00, tsmear:   1.00000000E-02, }
meta: {optdriver: 0, ionmov: 0, optcell: 0, iscf: 7, paral_kgb: 0, }
...

 Exchange-correlation functional for the present dataset will be:
  GGA: Perdew-Burke-Ernzerhof functional - ixc=11
 Citation for XC functional:
  J.P.Perdew, K.Burke, M.Ernzerhof, PRL 77, 3865 (1996)

 Real(R)+Recip(G) space primitive vectors, cartesian coordinates (Bohr,Bohr^-1):
 R(1)=120.0000000  0.0000000  0.0000000  G(1)=  0.0083333  0.0000000  0.0000000
 R(2)=  0.0000000120.0000000  0.0000000  G(2)=  0.0000000  0.0083333  0.0000000
 R(3)=  0.0000000  0.0000000120.0000000  G(3)=  0.0000000  0.0000000  0.0083333
 Unit cell volume ucvol=  1.7280000E+06 bohr^3
 Angles (23,13,12)=  9.00000000E+01  9.00000000E+01  9.00000000E+01 degrees

 getcut: wavevector=  0.0000  0.0000  0.0000  ngfft= 972 972 972
         ecut(hartree)=     80.000   => boxcut(ratio)=   2.01175

--- Pseudopotential description ------------------------------------------------
- pspini: atom type   1  psp file is /pc2/groups/hpc-prf-metdyn/epop2d10_Lukas/Pseudos/GTH/H-q1
- pspatm: opening atomic psp file    /pc2/groups/hpc-prf-metdyn/epop2d10_Lukas/Pseudos/GTH/H-q1
- Goedecker pseudopotential for H
-  1.00000   1.00000     70301                znucl, zion, pspdat
   10   11   -1    2      2001   0.00000      pspcod,pspxc,lmax,lloc,mmax,r2well
 rloc=   0.2000000
 cc(1:2)=  -4.1789004   0.7244633
-  Local part computed in reciprocal space.

 pspatm : COMMENT -
  the projectors are not normalized,
  so that the KB energies are not consistent with 
  definition in PRB44, 8503 (1991). 
  However, this does not influence the results obtained hereafter.
  pspatm : epsatm=   -0.00136065
         --- l  ekb(1:nproj) -->
 pspatm: atomic psp has been read  and splines computed

- pspini: atom type   2  psp file is /pc2/groups/hpc-prf-metdyn/epop2d10_Lukas/Pseudos/GTH/C-q4
- pspatm: opening atomic psp file    /pc2/groups/hpc-prf-metdyn/epop2d10_Lukas/Pseudos/GTH/C-q4
- Goedecker pseudopotential for C
-  6.00000   4.00000     70301                znucl, zion, pspdat
   10   11    1    2      2001   0.00000      pspcod,pspxc,lmax,lloc,mmax,r2well
 rloc=   0.3384712
 cc(1:2)=  -8.8036740   1.3392108
 for angular momentum l =  0 r(l) =   0.3025757
   h11, h12, h13 =   9.6224867   0.0000000   0.0000000
        h22, h23 =               0.0000000   0.0000000
             h33 =                           0.0000000
 for angular momentum l =  1 r(l) =   0.2915069
   h11, h12, h13 =   0.0000000   0.0000000   0.0000000
        h22, h23 =               0.0000000   0.0000000
             h33 =                           0.0000000
   k11, k12, k13 =   0.0020732   0.0000000   0.0000000
        k22, k23 =               0.0000000   0.0000000
             k33 =                           0.0000000
-  Local part computed in reciprocal space.

 pspatm : COMMENT -
  the projectors are not normalized,
  so that the KB energies are not consistent with 
  definition in PRB44, 8503 (1991). 
  However, this does not influence the results obtained hereafter.
  pspatm : epsatm=   -0.04360725
         --- l  ekb(1:nproj) -->
             0    0.944919
             1    0.000000
 pspatm: atomic psp has been read  and splines computed

- pspini: atom type   3  psp file is /pc2/groups/hpc-prf-metdyn/epop2d10_Lukas/Pseudos/GTH/O-q6
- pspatm: opening atomic psp file    /pc2/groups/hpc-prf-metdyn/epop2d10_Lukas/Pseudos/GTH/O-q6
- Goedecker pseudopotential for O
-  8.00000   6.00000     70301                znucl, zion, pspdat
   10   11    1    2      2001   0.00000      pspcod,pspxc,lmax,lloc,mmax,r2well
 rloc=   0.2445543
 cc(1:2)= -16.6672148   2.4873113
 for angular momentum l =  0 r(l) =   0.2209559
   h11, h12, h13 =  18.3374581   0.0000000   0.0000000
        h22, h23 =               0.0000000   0.0000000
             h33 =                           0.0000000
 for angular momentum l =  1 r(l) =   0.2113325
   h11, h12, h13 =   0.0000000   0.0000000   0.0000000
        h22, h23 =               0.0000000   0.0000000
             h33 =                           0.0000000
   k11, k12, k13 =   0.0075593   0.0000000   0.0000000
        k22, k23 =               0.0000000   0.0000000
             k33 =                           0.0000000
-  Local part computed in reciprocal space.

 pspatm : COMMENT -
  the projectors are not normalized,
  so that the KB energies are not consistent with 
  definition in PRB44, 8503 (1991). 
  However, this does not influence the results obtained hereafter.
  pspatm : epsatm=    0.13419041
         --- l  ekb(1:nproj) -->
             0    0.701231
             1    0.000000
 pspatm: atomic psp has been read  and splines computed

- pspini: atom type   4  psp file is /pc2/groups/hpc-prf-metdyn/epop2d10_Lukas/Pseudos/GTH/N-q5
- pspatm: opening atomic psp file    /pc2/groups/hpc-prf-metdyn/epop2d10_Lukas/Pseudos/GTH/N-q5
- Goedecker pseudopotential for N
-  7.00000   5.00000     70301                znucl, zion, pspdat
   10   11    1    2      2001   0.00000      pspcod,pspxc,lmax,lloc,mmax,r2well
 rloc=   0.2837905
 cc(1:2)= -12.4152256   1.8680959
 for angular momentum l =  0 r(l) =   0.2554050
   h11, h12, h13 =  13.6302626   0.0000000   0.0000000
        h22, h23 =               0.0000000   0.0000000
             h33 =                           0.0000000
 for angular momentum l =  1 r(l) =   0.2454945
   h11, h12, h13 =   0.0000000   0.0000000   0.0000000
        h22, h23 =               0.0000000   0.0000000
             h33 =                           0.0000000
   k11, k12, k13 =   0.0041475   0.0000000   0.0000000
        k22, k23 =               0.0000000   0.0000000
             k33 =                           0.0000000
-  Local part computed in reciprocal space.

 pspatm : COMMENT -
  the projectors are not normalized,
  so that the KB energies are not consistent with 
  definition in PRB44, 8503 (1991). 
  However, this does not influence the results obtained hereafter.
  pspatm : epsatm=    0.07842924
         --- l  ekb(1:nproj) -->
             0    0.805003
             1    0.000000
 pspatm: atomic psp has been read  and splines computed

   1.03054436E+01                                ecore*ucvol(ha*bohr**3)
--------------------------------------------------------------------------------

_setup2: Arith. and geom. avg. npw (full set) are59057463.00059057463.000

================================================================================

--- !BeginCycle
iteration_state: {dtset: 1, }
solver: {iscf: 7, nstep: 100, nline: 4, wfoptalg: 0, }
tolerances: {toldfe: 1.00E-10, }
...

     iter   Etot(hartree)      deltaE(h)  residm     vres2
 ETOT  1   6.5852097404173     6.585E+00 5.816E-01 4.939E+07
 ETOT  2  -61.939696124781    -6.852E+01 1.509E+00 1.200E+07
 ETOT  3  -70.255799901780    -8.316E+00 9.467E-01 6.052E+06
 ETOT  4  -73.323839479416    -3.068E+00 3.482E-01 4.913E+06
 ETOT  5  -75.315756065241    -1.992E+00 1.027E-01 4.039E+06
 ETOT  6  -75.695612548309    -3.799E-01 3.354E-02 3.351E+06
 ETOT  7  -76.240655567099    -5.450E-01 2.879E-02 2.320E+06
 ETOT  8  -76.612242548315    -3.716E-01 5.698E-03 1.380E+06
 ETOT  9  -76.833992437161    -2.217E-01 5.323E-03 1.037E+06
 ETOT 10  -76.936471057973    -1.025E-01 3.587E-02 4.112E+04
 ETOT 11  -76.995414868602    -5.894E-02 7.747E-03 6.529E+04
 ETOT 12  -77.068119269894    -7.270E-02 3.777E-03 9.134E+03
 ETOT 13  -77.062701657645     5.418E-03 4.975E-03 2.893E+03
 ETOT 14  -77.089675621074    -2.697E-02 1.102E-03 1.604E+03
 ETOT 15  -77.097577804242    -7.902E-03 1.154E-04 9.625E+02
 ETOT 16  -77.094990414157     2.587E-03 1.714E-04 7.019E+02
 ETOT 17  -77.096811042939    -1.821E-03 1.764E-04 4.233E+02
 ETOT 18  -77.098830064130    -2.019E-03 2.684E-05 1.963E+02
 ETOT 19  -77.098966409842    -1.363E-04 7.773E-06 5.487E+01
 ETOT 20  -77.099063591378    -9.718E-05 2.122E-06 1.934E+01
 ETOT 21  -77.098949321413     1.143E-04 5.287E-06 2.383E+01
 ETOT 22  -77.099129206015    -1.799E-04 2.865E-06 4.136E+00
 ETOT 23  -77.099134314527    -5.109E-06 4.763E-07 2.329E+00
 ETOT 24  -77.099141121382    -6.807E-06 3.481E-07 2.026E+00
 ETOT 25  -77.099146796811    -5.675E-06 1.216E-07 1.114E+00
 ETOT 26  -77.099133201260     1.360E-05 3.929E-07 2.323E+00
 ETOT 27  -77.099148258370    -1.506E-05 1.373E-07 4.230E-01
 ETOT 28  -77.099148458464    -2.001E-07 2.752E-08 2.577E-01
 ETOT 29  -77.099149271056    -8.126E-07 7.242E-09 2.233E-01
 ETOT 30  -77.099149157604     1.135E-07 3.861E-09 6.928E-02
 ETOT 31  -77.099149207840    -5.024E-08 4.324E-09 1.242E-01
 ETOT 32  -77.099149205120     2.721E-09 2.986E-09 3.320E-02
 ETOT 33  -77.099149179983     2.514E-08 7.538E-09 2.869E-02
 ETOT 34  -77.099149344300    -1.643E-07 1.703E-09 1.470E-02
 ETOT 35  -77.099149353969    -9.669E-09 9.294E-10 3.842E-03
 ETOT 36  -77.099149354285    -3.155E-10 1.684E-10 1.543E-03
 ETOT 37  -77.099149365225    -1.094E-08 1.636E-10 4.339E-04
 ETOT 38  -77.099149364456     7.691E-10 6.342E-11 2.410E-04
 ETOT 39  -77.099149364780    -3.235E-10 3.897E-11 3.021E-04
 ETOT 40  -77.099149364788    -8.555E-12 2.247E-11 1.121E-04
 ETOT 41  -77.099149365340    -5.520E-10 1.291E-11 2.340E-05
 ETOT 42  -77.099149365262     7.837E-11 8.380E-12 5.368E-05
 ETOT 43  -77.099149365349    -8.728E-11 5.119E-12 1.719E-05

 At SCF step   43, etot is converged : 
  for the second time, diff in etot=  8.728E-11 < toldfe=  1.000E-10

 Cartesian components of stress tensor (hartree/bohr^3)
  sigma(1 1)=  5.28099825E-08  sigma(3 2)=  0.00000000E+00
  sigma(2 2)=  5.72537122E-08  sigma(3 1)= -5.89958228E-11
  sigma(3 3)=  4.65878543E-08  sigma(2 1)=  0.00000000E+00


--- !ResultsGS
iteration_state: {dtset: 1, }
comment   : Summary of ground state results
lattice_vectors:
- [120.0000000,   0.0000000,   0.0000000, ]
- [  0.0000000, 120.0000000,   0.0000000, ]
- [  0.0000000,   0.0000000, 120.0000000, ]
lattice_lengths: [ 120.00000,  120.00000,  120.00000, ]
lattice_angles: [ 90.000,  90.000,  90.000, ] # degrees, (23, 13, 12)
lattice_volume:   1.7280000E+06
convergence: {deltae: -8.728E-11, res2:  1.719E-05, residm:  5.119E-12, diffor: null, }
etotal    :  -7.70991494E+01
entropy   :   0.00000000E+00
fermie    :  -2.30707103E-01
cartesian_stress_tensor: # hartree/bohr^3
- [  5.28099825E-08,   0.00000000E+00,  -5.89958228E-11, ]
- [  0.00000000E+00,   5.72537122E-08,   0.00000000E+00, ]
- [ -5.89958228E-11,   0.00000000E+00,   4.65878543E-08, ]
pressure_GPa:  -1.5363E-03
xred      :
- [  2.7056E-02,  -1.5748E-09,  -3.3455E-02,  H]
- [  1.8013E-02,  -1.5748E-09,  -1.8957E-02,  C]
- [  2.7474E-02,  -1.5748E-09,   1.5356E-04,  C]
- [  4.4521E-02,  -1.5748E-09,   2.0444E-03,  H]
- [ -4.8663E-03,  -1.5748E-09,  -2.0425E-02,  C]
- [ -1.5315E-02,  -1.5748E-09,  -3.6613E-02,  O]
- [ -1.4998E-02,  -1.5748E-09,  -5.4050E-04,  N]
- [ -3.1026E-02,  -1.5748E-09,  -8.0496E-04,  H]
- [ -5.9075E-03,  -1.5748E-09,   1.9289E-02,  C]
- [ -1.5735E-02,  -1.5748E-09,   3.5800E-02,  O]
- [  1.6100E-02,  -1.5748E-09,   1.8529E-02,  N]
- [  2.3327E-02,  -1.5748E-09,   3.2766E-02,  H]
cartesian_forces: # hartree/bohr
- [  7.24146583E-05,  -0.00000000E+00,  -2.15242123E-04, ]
- [  8.69637363E-05,  -0.00000000E+00,   2.37106145E-04, ]
- [  2.37383449E-04,  -0.00000000E+00,  -8.77788454E-04, ]
- [  1.09835943E-04,  -0.00000000E+00,   1.29774519E-05, ]
- [  2.16861335E-03,  -0.00000000E+00,   2.42822407E-03, ]
- [ -2.61063339E-03,  -0.00000000E+00,  -3.42067067E-03, ]
- [ -2.23714703E-04,  -0.00000000E+00,  -2.53560526E-04, ]
- [ -8.54299615E-04,  -0.00000000E+00,  -3.00453477E-05, ]
- [  1.39434661E-03,  -0.00000000E+00,  -2.44133761E-03, ]
- [ -8.63060023E-04,  -0.00000000E+00,   3.73030486E-03, ]
- [  1.11491356E-04,  -0.00000000E+00,   1.35010959E-04, ]
- [  3.70658630E-04,  -0.00000000E+00,   6.95021258E-04, ]
force_length_stats: {min:   1.10599949E-04, max:   4.30306804E-03, mean:   1.48786063E-03, }
...

 Integrated electronic density in atomic spheres:
 ------------------------------------------------
 Atom  Sphere_radius  Integrated_density
    1        2.00000          2.03849565
    2        2.00000          4.70892926
    3        2.00000          4.80452817
    4        2.00000          2.02397935
    5        2.00000          5.35002015
    6        2.00000          6.52838966
    7        2.00000          5.89868571
    8        2.00000          2.61110883
    9        2.00000          5.55732429
   10        2.00000          6.54861669
   11        2.00000          5.94632416
   12        2.00000          2.64518094
================================================================================

 ----iterations are completed or convergence reached----

 Mean square residual over all n,k,spin=   80.703E-14; max=  51.187E-13
 reduced coordinates (array xred) for   12 atoms
       0.027056329791     -0.000000001575     -0.033454964035
       0.018013288587     -0.000000001575     -0.018957209868
       0.027473592313     -0.000000001575      0.000153557559
       0.044520703371     -0.000000001575      0.002044431556
      -0.004866272763     -0.000000001575     -0.020424931698
      -0.015314855937     -0.000000001575     -0.036613302449
      -0.014997726846     -0.000000001575     -0.000540504152
      -0.031025825212     -0.000000001575     -0.000804960280
      -0.005907548002     -0.000000001575      0.019289056775
      -0.015734855412     -0.000000001575      0.035799839977
       0.016100433927     -0.000000001575      0.018528816860
       0.023327364993     -0.000000001575      0.032765727425
 rms dE/dt=  1.4717E-01; max dE/dt=  4.0770E-01; dE/dt below (all hartree)
    1      -0.011973289412      0.000000000000      0.023047813856
    2      -0.013719178775      0.000000000000     -0.031233978369
    3      -0.031769544327      0.000000000000      0.102553373515
    4      -0.016463843603      0.000000000000     -0.004338535175
    5      -0.263517132472      0.000000000000     -0.294168128786
    6       0.309992476408      0.000000000000      0.407699239569
    7       0.023562233959      0.000000000000      0.027646022183
    8       0.099232423357      0.000000000000      0.000824200776
    9      -0.170605123261      0.000000000000      0.290179272745
   10       0.100283672296      0.000000000000     -0.450417823828
   11      -0.016662493172      0.000000000000     -0.018982555987
   12      -0.047762565990      0.000000000000     -0.086183791891

 cartesian coordinates (angstrom) at end:
    1      1.71811116881761    -0.00000009999999    -2.12443253779388
    2      1.14386661266272    -0.00000009999999    -1.20380680808612
    3      1.74460786679451    -0.00000009999999     0.00975109925548
    4      2.82712098414174    -0.00000009999999     0.12982399008759
    5     -0.30901447640592    -0.00000009999999    -1.29700900096989
    6     -0.97251272574605    -0.00000009999999    -2.32499102248070
    7     -0.95237462728364    -0.00000009999999    -0.03432269737937
    8     -1.97017914957154    -0.00000009999999    -0.05111599609716
    9     -0.37513677135730    -0.00000009999999     1.22487950647717
   10     -0.99918322370968    -0.00000009999999     2.27333512642477
   11      1.02239792193718    -0.00000009999999     1.17660331016318
   12      1.48131718689746    -0.00000009999999     2.08066514113564

 cartesian forces (hartree/bohr) at end:
    1      0.00007241465830    -0.00000000000000    -0.00021524212338
    2      0.00008696373632    -0.00000000000000     0.00023710614516
    3      0.00023738344926    -0.00000000000000    -0.00087778845387
    4      0.00010983594322    -0.00000000000000     0.00001297745188
    5      0.00216861335047    -0.00000000000000     0.00242822406530
    6     -0.00261063339020    -0.00000000000000    -0.00342067067099
    7     -0.00022371470313    -0.00000000000000    -0.00025356052610
    8     -0.00085429961478    -0.00000000000000    -0.00003004534771
    9      0.00139434660704    -0.00000000000000    -0.00244133761412
   10     -0.00086306002260    -0.00000000000000     0.00373030485732
   11      0.00011149135630    -0.00000000000000     0.00013501095865
   12      0.00037065862979    -0.00000000000000     0.00069502125785
 frms,max,avg= 1.2262245E-03 3.7303049E-03   2.736E-05  0.000E+00  2.318E-05 h/b

 cartesian forces (eV/Angstrom) at end:
    1      0.00372371113506    -0.00000000000000    -0.01106819407006
    2      0.00447185474466    -0.00000000000000     0.01219248717978
    3      0.01220674672849    -0.00000000000000    -0.04513769334416
    4      0.00564799081327    -0.00000000000000     0.00066732735051
    5      0.11151457274714    -0.00000000000000     0.12486429133097
    6     -0.13424415516262    -0.00000000000000    -0.17589794340324
    7     -0.01150387160114    -0.00000000000000    -0.01303860539621
    8     -0.04392984877610    -0.00000000000000    -0.00154499376852
    9      0.07170017933909    -0.00000000000000    -0.12553861706667
   10     -0.04438032702073    -0.00000000000000     0.19181997209943
   11      0.00573311556922    -0.00000000000000     0.00694254204717
   12      0.01906003148365    -0.00000000000000     0.03573942704099
 frms,max,avg= 6.3054992E-02 1.9181997E-01   1.407E-03  0.000E+00  1.192E-03 e/A
 length scales=120.000000000000120.000000000000120.000000000000 bohr
              = 63.501265030800 63.501265030800 63.501265030800 angstroms
 prteigrs : about to open file final_calculationo_EIG
 Fermi (or HOMO) energy (hartree) =  -0.23071   Average Vxc (hartree)=  -0.00048
 Eigenvalues (hartree) for nkpt=   1  k points:
 kpt#   1, nband= 50, wtk=  1.00000, kpt=  0.0000  0.0000  0.0000 (reduced coord)
  -0.99884   -0.96460   -0.90910   -0.85714   -0.73570   -0.63913   -0.61245   -0.55278
  -0.51464   -0.47913   -0.44207   -0.42974   -0.40810   -0.38256   -0.37604   -0.37177
  -0.34112   -0.26201   -0.26113   -0.23441   -0.23071   -0.08931   -0.04281   -0.03946
  -0.01042   -0.00743   -0.00018    0.00041    0.00092    0.00123    0.00127    0.00134
   0.00153    0.00155    0.00235    0.00253    0.00258    0.00262    0.00264    0.00265
   0.00270    0.00272    0.00272    0.00284    0.00307    0.00314    0.00394    0.00399
   0.00402    0.00404

--- !EnergyTerms
iteration_state     : {dtset: 1, }
comment             : Components of total free energy in Hartree
kinetic             :  5.98146072070429E+01
hartree             :  2.24580274360612E+02
xc                  : -2.04879710200041E+01
Ewald energy        :  1.63357233205577E+02
psp_core            :  5.96379840314952E-06
local_psp           : -5.10000609246945E+02
non_local_psp       :  5.63731016456987E+00
total_energy        : -7.70991493653492E+01
total_energy_eV     : -2.09797454865999E+03
band_energy         : -2.20063586925029E+01
...


 Cartesian components of stress tensor (hartree/bohr^3)
  sigma(1 1)=  5.28099825E-08  sigma(3 2)=  0.00000000E+00
  sigma(2 2)=  5.72537122E-08  sigma(3 1)= -5.89958228E-11
  sigma(3 3)=  4.65878543E-08  sigma(2 1)=  0.00000000E+00

-Cartesian components of stress tensor (GPa)         [Pressure= -1.5363E-03 GPa]
- sigma(1 1)=  1.55372306E-03  sigma(3 2)=  0.00000000E+00
- sigma(2 2)=  1.68446208E-03  sigma(3 1)= -1.73571674E-06
- sigma(3 3)=  1.37066177E-03  sigma(2 1)=  0.00000000E+00

== END DATASET(S) ==============================================================
================================================================================
  
 -outvars: echo values of variables after computation  --------
            acell      1.2000000000E+02  1.2000000000E+02  1.2000000000E+02 Bohr
              amu      1.00794000E+00  1.20110000E+01  1.59994000E+01
                       1.40067400E+01
      chksymbreak           0
      chksymtnons           0
           diemac      2.00000000E+00
             ecut      8.00000000E+01 Hartree
           etotal     -7.7099149365E+01
            fcart      7.2414658298E-05 -0.0000000000E+00 -2.1524212338E-04
                       8.6963736324E-05 -0.0000000000E+00  2.3710614516E-04
                       2.3738344926E-04 -0.0000000000E+00 -8.7778845387E-04
                       1.0983594322E-04 -0.0000000000E+00  1.2977451877E-05
                       2.1686133505E-03 -0.0000000000E+00  2.4282240653E-03
                      -2.6106333902E-03 -0.0000000000E+00 -3.4206706710E-03
                      -2.2371470313E-04 -0.0000000000E+00 -2.5356052610E-04
                      -8.5429961478E-04 -0.0000000000E+00 -3.0045347709E-05
                       1.3943466070E-03 -0.0000000000E+00 -2.4413376141E-03
                      -8.6306002260E-04 -0.0000000000E+00  3.7303048573E-03
                       1.1149135630E-04 -0.0000000000E+00  1.3501095865E-04
                       3.7065862979E-04 -0.0000000000E+00  6.9502125785E-04
-          fftalg         312
           istwfk        2
              ixc          11
           kptopt           0
P           mkmem           1
            natom          12
            nband          50
            ngfft         972     972     972
             nkpt           1
            nstep         100
             nsym           2
           ntypat           4
              occ      2.000000  2.000000  2.000000  2.000000  2.000000  2.000000
                       2.000000  2.000000  2.000000  2.000000  2.000000  2.000000
                       2.000000  2.000000  2.000000  2.000000  2.000000  2.000000
                       2.000000  2.000000  2.000000  0.000000  0.000000  0.000000
                       0.000000  0.000000  0.000000  0.000000  0.000000  0.000000
                       0.000000  0.000000  0.000000  0.000000  0.000000  0.000000
                       0.000000  0.000000  0.000000  0.000000  0.000000  0.000000
                       0.000000  0.000000  0.000000  0.000000  0.000000  0.000000
                       0.000000  0.000000
          spgroup           6
           strten      5.2809982460E-08  5.7253712165E-08  4.6587854340E-08
                       0.0000000000E+00 -5.8995822819E-11  0.0000000000E+00
           symrel      1  0  0   0  1  0   0  0  1       1  0  0   0 -1  0   0  0  1
            tnons      0.0000000  0.0000000  0.0000000     0.0000000 -0.0000000  0.0000000
           toldfe      1.00000000E-10 Hartree
            typat      1  2  2  1  2  3  4  1  2  3  4  1
           xangst      1.7181111688E+00 -9.9999992365E-08 -2.1244325378E+00
                       1.1438666127E+00 -9.9999992365E-08 -1.2038068081E+00
                       1.7446078668E+00 -9.9999992365E-08  9.7510992555E-03
                       2.8271209841E+00 -9.9999992365E-08  1.2982399009E-01
                      -3.0901447641E-01 -9.9999992365E-08 -1.2970090010E+00
                      -9.7251272575E-01 -9.9999992365E-08 -2.3249910225E+00
                      -9.5237462728E-01 -9.9999992365E-08 -3.4322697379E-02
                      -1.9701791496E+00 -9.9999992365E-08 -5.1115996097E-02
                      -3.7513677136E-01 -9.9999992365E-08  1.2248795065E+00
                      -9.9918322371E-01 -9.9999992365E-08  2.2733351264E+00
                       1.0223979219E+00 -9.9999992365E-08  1.1766033102E+00
                       1.4813171869E+00 -9.9999992365E-08  2.0806651411E+00
            xcart      3.2467595749E+00 -1.8897259886E-07 -4.0145956842E+00
                       2.1615946305E+00 -1.8897259886E-07 -2.2748651842E+00
                       3.2968310775E+00 -1.8897259886E-07  1.8426907087E-02
                       5.3424844046E+00 -1.8897259886E-07  2.4533178674E-01
                      -5.8395273150E-01 -1.8897259886E-07 -2.4509918037E+00
                      -1.8377827124E+00 -1.8897259886E-07 -4.3935962939E+00
                      -1.7997272215E+00 -1.8897259886E-07 -6.4860498189E-02
                      -3.7230990254E+00 -1.8897259886E-07 -9.6595233633E-02
                      -7.0890576024E-01 -1.8897259886E-07  2.3146868130E+00
                      -1.8881826494E+00 -1.8897259886E-07  4.2959807972E+00
                       1.9320520713E+00 -1.8897259886E-07  2.2234580233E+00
                       2.7992837992E+00 -1.8897259886E-07  3.9318872910E+00
             xred      2.7056329791E-02 -1.5747716572E-09 -3.3454964035E-02
                       1.8013288587E-02 -1.5747716572E-09 -1.8957209868E-02
                       2.7473592313E-02 -1.5747716572E-09  1.5355755906E-04
                       4.4520703371E-02 -1.5747716572E-09  2.0444315562E-03
                      -4.8662727625E-03 -1.5747716572E-09 -2.0424931698E-02
                      -1.5314855937E-02 -1.5747716572E-09 -3.6613302449E-02
                      -1.4997726846E-02 -1.5747716572E-09 -5.4050415157E-04
                      -3.1025825212E-02 -1.5747716572E-09 -8.0496028028E-04
                      -5.9075480020E-03 -1.5747716572E-09  1.9289056775E-02
                      -1.5734855412E-02 -1.5747716572E-09  3.5799839977E-02
                       1.6100433927E-02 -1.5747716572E-09  1.8528816860E-02
                       2.3327364993E-02 -1.5747716572E-09  3.2765727425E-02
            znucl        1.00000    6.00000    8.00000    7.00000

================================================================================


- Timing analysis has been suppressed with timopt=0



================================================================================

 Suggested references for the acknowledgment of ABINIT usage.

 The users of ABINIT have little formal obligations with respect to the ABINIT group
 (those specified in the GNU General Public License, http://www.gnu.org/copyleft/gpl.txt).
 However, it is common practice in the scientific literature,
 to acknowledge the efforts of people that have made the research possible.
 In this spirit, please find below suggested citations of work written by ABINIT developers,
 corresponding to implementations inside of ABINIT that you have used in the present run.
 Note also that it will be of great value to readers of publications presenting these results,
 to read papers enabling them to understand the theoretical formalism and details
 of the ABINIT implementation.
 For information on why they are suggested, see also https://docs.abinit.org/theory/acknowledgments.
-
- [1] The Abinit project: Impact, environment and recent developments.
- Computer Phys. Comm. 248, 107042 (2020).
- X.Gonze, B. Amadon, G. Antonius, F.Arnardi, L.Baguet, J.-M.Beuken,
- J.Bieder, F.Bottin, J.Bouchet, E.Bousquet, N.Brouwer, F.Bruneval,
- G.Brunin, T.Cavignac, J.-B. Charraud, Wei Chen, M.Cote, S.Cottenier,
- J.Denier, G.Geneste, Ph.Ghosez, M.Giantomassi, Y.Gillet, O.Gingras,
- D.R.Hamann, G.Hautier, Xu He, N.Helbig, N.Holzwarth, Y.Jia, F.Jollet,
- W.Lafargue-Dit-Hauret, K.Lejaeghere, M.A.L.Marques, A.Martin, C.Martins,
- H.P.C. Miranda, F.Naccarato, K. Persson, G.Petretto, V.Planes, Y.Pouillon,
- S.Prokhorenko, F.Ricci, G.-M.Rignanese, A.H.Romero, M.M.Schmitt, M.Torrent,
- M.J.van Setten, B.Van Troeye, M.J.Verstraete, G.Zerah and J.W.Zwanzig
- Comment: the fifth generic paper describing the ABINIT project.
- Note that a version of this paper, that is not formatted for Computer Phys. Comm. 
- is available at https://www.abinit.org/sites/default/files/ABINIT20.pdf .
- The licence allows the authors to put it on the Web.
- DOI and bibtex: see https://docs.abinit.org/theory/bibliography/#gonze2020
-
- [2] ABINIT: Overview, and focus on selected capabilities
- J. Chem. Phys. 152, 124102 (2020).
- A. Romero, D.C. Allan, B. Amadon, G. Antonius, T. Applencourt, L.Baguet,
- J.Bieder, F.Bottin, J.Bouchet, E.Bousquet, F.Bruneval,
- G.Brunin, D.Caliste, M.Cote,
- J.Denier, C. Dreyer, Ph.Ghosez, M.Giantomassi, Y.Gillet, O.Gingras,
- D.R.Hamann, G.Hautier, F.Jollet, G. Jomard,
- A.Martin, 
- H.P.C. Miranda, F.Naccarato, G.Petretto, N.A. Pike, V.Planes,
- S.Prokhorenko, T. Rangel, F.Ricci, G.-M.Rignanese, M.Royo, M.Stengel, M.Torrent,
- M.J.van Setten, B.Van Troeye, M.J.Verstraete, J.Wiktor, J.W.Zwanziger, and X.Gonze.
- Comment: a global overview of ABINIT, with focus on selected capabilities .
- Note that a version of this paper, that is not formatted for J. Chem. Phys 
- is available at https://www.abinit.org/sites/default/files/ABINIT20_JPC.pdf .
- The licence allows the authors to put it on the Web.
- DOI and bibtex: see https://docs.abinit.org/theory/bibliography/#romero2020
-
- [3] Recent developments in the ABINIT software package.
- Computer Phys. Comm. 205, 106 (2016).
- X.Gonze, F.Jollet, F.Abreu Araujo, D.Adams, B.Amadon, T.Applencourt,
- C.Audouze, J.-M.Beuken, J.Bieder, A.Bokhanchuk, E.Bousquet, F.Bruneval
- D.Caliste, M.Cote, F.Dahm, F.Da Pieve, M.Delaveau, M.Di Gennaro,
- B.Dorado, C.Espejo, G.Geneste, L.Genovese, A.Gerossier, M.Giantomassi,
- Y.Gillet, D.R.Hamann, L.He, G.Jomard, J.Laflamme Janssen, S.Le Roux,
- A.Levitt, A.Lherbier, F.Liu, I.Lukacevic, A.Martin, C.Martins,
- M.J.T.Oliveira, S.Ponce, Y.Pouillon, T.Rangel, G.-M.Rignanese,
- A.H.Romero, B.Rousseau, O.Rubel, A.A.Shukri, M.Stankovski, M.Torrent,
- M.J.Van Setten, B.Van Troeye, M.J.Verstraete, D.Waroquier, J.Wiktor,
- B.Xu, A.Zhou, J.W.Zwanziger.
- Comment: the fourth generic paper describing the ABINIT project.
- Note that a version of this paper, that is not formatted for Computer Phys. Comm. 
- is available at https://www.abinit.org/sites/default/files/ABINIT16.pdf .
- The licence allows the authors to put it on the Web.
- DOI and bibtex: see https://docs.abinit.org/theory/bibliography/#gonze2016
-
- And optionally:
-
- [4] ABINIT: First-principles approach of materials and nanosystem properties.
- Computer Phys. Comm. 180, 2582-2615 (2009).
- X. Gonze, B. Amadon, P.-M. Anglade, J.-M. Beuken, F. Bottin, P. Boulanger, F. Bruneval,
- D. Caliste, R. Caracas, M. Cote, T. Deutsch, L. Genovese, Ph. Ghosez, M. Giantomassi
- S. Goedecker, D.R. Hamann, P. Hermet, F. Jollet, G. Jomard, S. Leroux, M. Mancini, S. Mazevet,
- M.J.T. Oliveira, G. Onida, Y. Pouillon, T. Rangel, G.-M. Rignanese, D. Sangalli, R. Shaltaf,
- M. Torrent, M.J. Verstraete, G. Zerah, J.W. Zwanziger
- Comment: the third generic paper describing the ABINIT project.
- Note that a version of this paper, that is not formatted for Computer Phys. Comm. 
- is available at https://www.abinit.org/sites/default/files/ABINIT_CPC_v10.pdf .
- The licence allows the authors to put it on the Web.
- DOI and bibtex: see https://docs.abinit.org/theory/bibliography/#gonze2009
-
- Proc.   0 individual time (sec): cpu=    1571235.4  wall=      92176.4

================================================================================

 Calculation completed.
.Delivered   0 WARNINGs and   7 COMMENTs to log file.
+Overall time at end (sec) : cpu=    1571235.4  wall=      92176.4
