
.Version 9.6.2 of ABINIT 
.(MPI version, prepared for a x86_64_linux_gnu11.3 computer) 

.Copyright (C) 1998-2021 ABINIT group . 
 ABINIT comes with ABSOLUTELY NO WARRANTY.
 It is free software, and you are welcome to redistribute it
 under certain conditions (GNU General Public License,
 see ~abinit/COPYING or http://www.gnu.org/copyleft/gpl.txt).

 ABINIT is a project of the Universite Catholique de Louvain,
 Corning Inc. and other collaborators, see ~abinit/doc/developers/contributors.txt .
 Please read https://docs.abinit.org/theory/acknowledgments for suggested
 acknowledgments of the ABINIT effort.
 For more information, see https://www.abinit.org .

.Starting date : Tue 28 Jan 2025.
- ( at 06h50 )
  
- The starting date is more than 3 years after the initial release
- of this version of ABINIT, namely Nov 2021.
- This version of ABINIT is not supported anymore.
- Action: please, switch to a more recent version of ABINIT.
- input  file    -> final_calculation.abi
- output file    -> final_calculation.abo
- root for input  files -> final_calculationi
- root for output files -> final_calculationo


 Symmetries : space group P1 (#  1); Bravais aP (primitive triclinic)
================================================================================
 Values of the parameters that define the memory need of the present run
     intxc =       0    ionmov =       0      iscf =       7    lmnmax =       2
     lnmax =       2     mgfft =    1125  mpssoang =       2    mqgrid =   54019
     natom =      14  nloc_mem =       1    nspden =       1   nspinor =       1
    nsppol =       1      nsym =       1    n1xccc =       0    ntypat =       3
    occopt =       1   xclevel =       2
-    mband =          50        mffmem =           1         mkmem =           1
       mpw =    41267139          nfft =  1423828125          nkpt =           1
================================================================================
P This job should need less than                  434524.541 Mbytes of memory.
  Rough estimation (10% accuracy) of disk space for files :
_ WF disk file :  31484.330 Mbytes ; DEN or POT disk file :  -1425.051 Mbytes.
================================================================================

--------------------------------------------------------------------------------
------------- Echo of variables that govern the present computation ------------
--------------------------------------------------------------------------------
-
- outvars: echo of selected default values                                      
-   iomode0 =  0 , fftalg0 =312 , wfoptalg0 =  0
-
- outvars: echo of global parameters not present in the input file              
-  max_nthreads =   64
-
 -outvars: echo values of preprocessed input variables --------
            acell      6.0000000000E+01  6.0000000000E+01  6.0000000000E+01 Bohr
              amu      1.20110000E+01  1.00794000E+00  1.40067400E+01
      chksymbreak           0
      chksymtnons           0
           diemac      2.00000000E+00
             ecut      4.00000000E+02 Hartree
-          fftalg         312
         icutcoul           0
           istwfk        2
              ixc          11
           kptopt           0
P           mkmem           1
            natom          14
            nband          50
            ngfft        1125    1125    1125
             nkpt           1
            nstep         100
             nsym           1
           ntypat           3
              occ      2.000000  2.000000  2.000000  2.000000  2.000000  2.000000
                       2.000000  2.000000  2.000000  2.000000  2.000000  2.000000
                       2.000000  2.000000  2.000000  2.000000  2.000000  2.000000
                       0.000000  0.000000  0.000000  0.000000  0.000000  0.000000
                       0.000000  0.000000  0.000000  0.000000  0.000000  0.000000
                       0.000000  0.000000  0.000000  0.000000  0.000000  0.000000
                       0.000000  0.000000  0.000000  0.000000  0.000000  0.000000
                       0.000000  0.000000  0.000000  0.000000  0.000000  0.000000
                       0.000000  0.000000
          spgroup           1
           toldfe      1.00000000E-10 Hartree
            typat      1  1  1  1  1  1  2  2  2  2  2  3  2  2
           xangst     -1.0861429171E+00 -8.7052593353E-01  0.0000000000E+00
                       2.1083998390E-01 -1.3758858949E+00  0.0000000000E+00
                       1.2968829010E+00 -5.0535996141E-01  0.0000000000E+00
                       1.0861419171E+00  8.7052593353E-01  0.0000000000E+00
                      -2.1084098390E-01  1.3757858950E+00  0.0000000000E+00
                      -1.2969829010E+00  5.0526096142E-01  0.0000000000E+00
                      -1.9327038524E+00 -1.5484508818E+00  0.0000000000E+00
                       3.7497997137E-01 -2.4479428131E+00  0.0000000000E+00
                       2.3074738238E+00 -8.9900193136E-01  0.0000000000E+00
                       1.9323828525E+00  1.5488498817E+00  0.0000000000E+00
                      -2.3078318238E+00  8.9824193142E-01  0.0000000000E+00
                      -4.2850096728E-01  2.7901567870E+00  0.0000000000E+00
                       3.2356697529E-01  3.3406637449E+00  3.4656897354E-01
                      -1.3271638987E+00  3.0701697656E+00  3.3397997450E-01
            xcart     -2.0525126544E+00 -1.6450556060E+00  0.0000000000E+00
                       3.9842982744E-01 -2.6000475316E+00  0.0000000000E+00
                       2.4507535093E+00 -9.5499192560E-01  0.0000000000E+00
                       2.0525107647E+00  1.6450556060E+00  0.0000000000E+00
                      -3.9843171716E-01  2.5998585590E+00  0.0000000000E+00
                      -2.4509424819E+00  9.5480484273E-01  0.0000000000E+00
                      -3.6522809771E+00 -2.9261480968E+00  0.0000000000E+00
                       7.0860945121E-01 -4.6259415057E+00  0.0000000000E+00
                       4.3604935858E+00 -1.6988674432E+00  0.0000000000E+00
                       3.6516743750E+00  2.9269020974E+00  0.0000000000E+00
                      -4.3611701077E+00  1.6974312515E+00  0.0000000000E+00
                      -8.0974947584E-01  5.2726321952E+00  0.0000000000E+00
                       6.1145296895E-01  6.3129395800E+00  6.5492044614E-01
                      -2.5079763019E+00  5.8017800384E+00  6.3113068567E-01
             xred     -3.4208544241E-02 -2.7417593433E-02  0.0000000000E+00
                       6.6404971239E-03 -4.3334125526E-02  0.0000000000E+00
                       4.0845891821E-02 -1.5916532093E-02  0.0000000000E+00
                       3.4208512745E-02  2.7417593433E-02  0.0000000000E+00
                      -6.6405286194E-03  4.3330975983E-02  0.0000000000E+00
                      -4.0849041365E-02  1.5913414045E-02  0.0000000000E+00
                      -6.0871349618E-02 -4.8769134946E-02  0.0000000000E+00
                       1.1810157520E-02 -7.7099025095E-02  0.0000000000E+00
                       7.2674893097E-02 -2.8314457387E-02  0.0000000000E+00
                       6.0861239584E-02  4.8781701624E-02  0.0000000000E+00
                      -7.2686168462E-02  2.8290520858E-02  0.0000000000E+00
                      -1.3495824597E-02  8.7877203253E-02  0.0000000000E+00
                       1.0190882816E-02  1.0521565967E-01  1.0915340769E-02
                      -4.1799605032E-02  9.6696333974E-02  1.0518844761E-02
            znucl        6.00000    1.00000    7.00000

================================================================================

 chkinp: Checking input parameters for consistency.

================================================================================
== DATASET  1 ==================================================================
-   mpi_nproc: 1, omp_nthreads: 64 (-1 if OMP is not activated)


--- !DatasetInfo
iteration_state: {dtset: 1, }
dimensions: {natom: 14, nkpt: 1, mband: 50, nsppol: 1, nspinor: 1, nspden: 1, mpw: 41267139, }
cutoff_energies: {ecut: 400.0, pawecutdg:  -1.0, }
electrons: {nelect:   3.60000000E+01, charge:   0.00000000E+00, occopt:   1.00000000E+00, tsmear:   1.00000000E-02, }
meta: {optdriver: 0, ionmov: 0, optcell: 0, iscf: 7, paral_kgb: 0, }
...

 Exchange-correlation functional for the present dataset will be:
  GGA: Perdew-Burke-Ernzerhof functional - ixc=11
 Citation for XC functional:
  J.P.Perdew, K.Burke, M.Ernzerhof, PRL 77, 3865 (1996)

 Real(R)+Recip(G) space primitive vectors, cartesian coordinates (Bohr,Bohr^-1):
 R(1)= 60.0000000  0.0000000  0.0000000  G(1)=  0.0166667  0.0000000  0.0000000
 R(2)=  0.0000000 60.0000000  0.0000000  G(2)=  0.0000000  0.0166667  0.0000000
 R(3)=  0.0000000  0.0000000 60.0000000  G(3)=  0.0000000  0.0000000  0.0166667
 Unit cell volume ucvol=  2.1600000E+05 bohr^3
 Angles (23,13,12)=  9.00000000E+01  9.00000000E+01  9.00000000E+01 degrees

 getcut: wavevector=  0.0000  0.0000  0.0000  ngfft=112511251125
         ecut(hartree)=    400.000   => boxcut(ratio)=   2.08075

--- Pseudopotential description ------------------------------------------------
- pspini: atom type   1  psp file is /pc2/groups/hpc-prf-metdyn/epop2d10_Lukas/Pseudos/GTH/C-q4
- pspatm: opening atomic psp file    /pc2/groups/hpc-prf-metdyn/epop2d10_Lukas/Pseudos/GTH/C-q4
- Goedecker pseudopotential for C
-  6.00000   4.00000     70301                znucl, zion, pspdat
   10   11    1    2      2001   0.00000      pspcod,pspxc,lmax,lloc,mmax,r2well
 rloc=   0.3384712
 cc(1:2)=  -8.8036740   1.3392108
 for angular momentum l =  0 r(l) =   0.3025757
   h11, h12, h13 =   9.6224867   0.0000000   0.0000000
        h22, h23 =               0.0000000   0.0000000
             h33 =                           0.0000000
 for angular momentum l =  1 r(l) =   0.2915069
   h11, h12, h13 =   0.0000000   0.0000000   0.0000000
        h22, h23 =               0.0000000   0.0000000
             h33 =                           0.0000000
   k11, k12, k13 =   0.0020732   0.0000000   0.0000000
        k22, k23 =               0.0000000   0.0000000
             k33 =                           0.0000000
-  Local part computed in reciprocal space.

 pspatm : COMMENT -
  the projectors are not normalized,
  so that the KB energies are not consistent with 
  definition in PRB44, 8503 (1991). 
  However, this does not influence the results obtained hereafter.
  pspatm : epsatm=   -0.04360725
         --- l  ekb(1:nproj) -->
             0    0.944919
             1    0.000000
 pspatm: atomic psp has been read  and splines computed

- pspini: atom type   2  psp file is /pc2/groups/hpc-prf-metdyn/epop2d10_Lukas/Pseudos/GTH/H-q1
- pspatm: opening atomic psp file    /pc2/groups/hpc-prf-metdyn/epop2d10_Lukas/Pseudos/GTH/H-q1
- Goedecker pseudopotential for H
-  1.00000   1.00000     70301                znucl, zion, pspdat
   10   11   -1    2      2001   0.00000      pspcod,pspxc,lmax,lloc,mmax,r2well
 rloc=   0.2000000
 cc(1:2)=  -4.1789004   0.7244633
-  Local part computed in reciprocal space.

 pspatm : COMMENT -
  the projectors are not normalized,
  so that the KB energies are not consistent with 
  definition in PRB44, 8503 (1991). 
  However, this does not influence the results obtained hereafter.
  pspatm : epsatm=   -0.00136065
         --- l  ekb(1:nproj) -->
 pspatm: atomic psp has been read  and splines computed

- pspini: atom type   3  psp file is /pc2/groups/hpc-prf-metdyn/epop2d10_Lukas/Pseudos/GTH/N-q5
- pspatm: opening atomic psp file    /pc2/groups/hpc-prf-metdyn/epop2d10_Lukas/Pseudos/GTH/N-q5
- Goedecker pseudopotential for N
-  7.00000   5.00000     70301                znucl, zion, pspdat
   10   11    1    2      2001   0.00000      pspcod,pspxc,lmax,lloc,mmax,r2well
 rloc=   0.2837905
 cc(1:2)= -12.4152256   1.8680959
 for angular momentum l =  0 r(l) =   0.2554050
   h11, h12, h13 =  13.6302626   0.0000000   0.0000000
        h22, h23 =               0.0000000   0.0000000
             h33 =                           0.0000000
 for angular momentum l =  1 r(l) =   0.2454945
   h11, h12, h13 =   0.0000000   0.0000000   0.0000000
        h22, h23 =               0.0000000   0.0000000
             h33 =                           0.0000000
   k11, k12, k13 =   0.0041475   0.0000000   0.0000000
        k22, k23 =               0.0000000   0.0000000
             k33 =                           0.0000000
-  Local part computed in reciprocal space.

 pspatm : COMMENT -
  the projectors are not normalized,
  so that the KB energies are not consistent with 
  definition in PRB44, 8503 (1991). 
  However, this does not influence the results obtained hereafter.
  pspatm : epsatm=    0.07842924
         --- l  ekb(1:nproj) -->
             0    0.805003
             1    0.000000
 pspatm: atomic psp has been read  and splines computed

  -6.93859727E+00                                ecore*ucvol(ha*bohr**3)
--------------------------------------------------------------------------------

_setup2: Arith. and geom. avg. npw (full set) are82534277.00082534277.000

================================================================================

--- !BeginCycle
iteration_state: {dtset: 1, }
solver: {iscf: 7, nstep: 100, nline: 4, wfoptalg: 0, }
tolerances: {toldfe: 1.00E-10, }
...

     iter   Etot(hartree)      deltaE(h)  residm     vres2
 ETOT  1   3.8423754059684     3.842E+00 7.671E-01 2.695E+08
 ETOT  2  -38.674311319145    -4.252E+01 8.284E-01 9.039E+07
 ETOT  3  -46.282081121591    -7.608E+00 1.520E-01 3.416E+07
 ETOT  4  -46.954808561830    -6.727E-01 3.033E-02 2.303E+07
 ETOT  5  -47.246201869606    -2.914E-01 3.900E-03 1.581E+07
 ETOT  6  -47.447391942629    -2.012E-01 1.151E-03 1.016E+07
 ETOT  7  -47.610766299934    -1.634E-01 1.243E-03 6.416E+06
 ETOT  8  -47.660626792491    -4.986E-02 1.906E-04 5.238E+06
 ETOT  9  -47.714388731525    -5.376E-02 4.267E-04 3.764E+06
 ETOT 10  -47.837425909578    -1.230E-01 1.260E-02 6.088E+04
 ETOT 11  -47.873678476254    -3.625E-02 1.104E-02 2.146E+04
 ETOT 12  -47.873179031110     4.994E-04 1.092E-03 1.175E+04
 ETOT 13  -47.875032462592    -1.853E-03 2.436E-04 7.653E+03
 ETOT 14  -47.877146761611    -2.114E-03 7.877E-05 2.200E+03
 ETOT 15  -47.877966556661    -8.198E-04 1.607E-05 3.540E+02
 ETOT 16  -47.878081470818    -1.149E-04 4.739E-06 2.799E+02
 ETOT 17  -47.878081769118    -2.983E-07 1.551E-06 2.640E+02
 ETOT 18  -47.878101395848    -1.963E-05 2.439E-07 2.190E+02
 ETOT 19  -47.878115956351    -1.456E-05 7.281E-07 1.031E+02
 ETOT 20  -47.878127694276    -1.174E-05 4.101E-07 5.609E+00
 ETOT 21  -47.878126670052     1.024E-06 5.771E-07 5.195E+00
 ETOT 22  -47.878132690071    -6.020E-06 1.398E-07 3.073E-01
 ETOT 23  -47.878132735738    -4.567E-08 4.591E-07 7.816E-02
 ETOT 24  -47.878132762539    -2.680E-08 9.501E-08 2.452E-02
 ETOT 25  -47.878132796680    -3.414E-08 4.845E-07 3.432E-03
 ETOT 26  -47.878132807814    -1.113E-08 1.061E-07 5.080E-04
 ETOT 27  -47.878132808287    -4.723E-10 4.948E-07 9.756E-05
 ETOT 28  -47.878132808365    -7.822E-11 1.244E-07 3.667E-05
 ETOT 29  -47.878132808413    -4.795E-11 4.895E-07 5.461E-06

 At SCF step   29, etot is converged : 
  for the second time, diff in etot=  4.795E-11 < toldfe=  1.000E-10

 Cartesian components of stress tensor (hartree/bohr^3)
  sigma(1 1)=  1.97089715E-05  sigma(3 2)= -4.45337637E-08
  sigma(2 2)=  2.00919742E-05  sigma(3 1)= -5.38369106E-09
  sigma(3 3)=  2.01693511E-05  sigma(2 1)= -6.29917973E-08


--- !ResultsGS
iteration_state: {dtset: 1, }
comment   : Summary of ground state results
lattice_vectors:
- [ 60.0000000,   0.0000000,   0.0000000, ]
- [  0.0000000,  60.0000000,   0.0000000, ]
- [  0.0000000,   0.0000000,  60.0000000, ]
lattice_lengths: [  60.00000,   60.00000,   60.00000, ]
lattice_angles: [ 90.000,  90.000,  90.000, ] # degrees, (23, 13, 12)
lattice_volume:   2.1600000E+05
convergence: {deltae: -4.795E-11, res2:  5.461E-06, residm:  4.895E-07, diffor: null, }
etotal    :  -4.78781328E+01
entropy   :   0.00000000E+00
fermie    :  -1.84390642E-01
cartesian_stress_tensor: # hartree/bohr^3
- [  1.97089715E-05,  -6.29917973E-08,  -5.38369106E-09, ]
- [ -6.29917973E-08,   2.00919742E-05,  -4.45337637E-08, ]
- [ -5.38369106E-09,  -4.45337637E-08,   2.01693511E-05, ]
pressure_GPa:  -5.8813E-01
xred      :
- [ -3.4209E-02,  -2.7418E-02,   0.0000E+00,  C]
- [  6.6405E-03,  -4.3334E-02,   0.0000E+00,  C]
- [  4.0846E-02,  -1.5917E-02,   0.0000E+00,  C]
- [  3.4209E-02,   2.7418E-02,   0.0000E+00,  C]
- [ -6.6405E-03,   4.3331E-02,   0.0000E+00,  C]
- [ -4.0849E-02,   1.5913E-02,   0.0000E+00,  C]
- [ -6.0871E-02,  -4.8769E-02,   0.0000E+00,  H]
- [  1.1810E-02,  -7.7099E-02,   0.0000E+00,  H]
- [  7.2675E-02,  -2.8314E-02,   0.0000E+00,  H]
- [  6.0861E-02,   4.8782E-02,   0.0000E+00,  H]
- [ -7.2686E-02,   2.8291E-02,   0.0000E+00,  H]
- [ -1.3496E-02,   8.7877E-02,   0.0000E+00,  N]
- [  1.0191E-02,   1.0522E-01,   1.0915E-02,  H]
- [ -4.1800E-02,   9.6696E-02,   1.0519E-02,  H]
cartesian_forces: # hartree/bohr
- [  5.78149705E-03,   1.02030052E-02,  -6.64324213E-04, ]
- [ -1.14065662E-04,   4.26523746E-03,   1.20604013E-05, ]
- [ -8.16717296E-03,   7.48948839E-03,  -5.98767993E-04, ]
- [  9.47682647E-04,  -7.44551332E-03,  -7.66092295E-04, ]
- [ -3.68479906E-03,   2.91938223E-02,   4.95962166E-03, ]
- [  1.49979853E-03,  -7.11588850E-03,  -8.10636980E-04, ]
- [ -1.33423973E-03,   6.42995230E-04,   9.39297387E-05, ]
- [  2.71772694E-04,   8.08403548E-04,   8.10871287E-05, ]
- [  9.57396882E-04,   6.72055598E-04,   9.22704852E-05, ]
- [  1.04091668E-03,   2.13499835E-03,   1.16508332E-04, ]
- [ -1.49092385E-03,   1.86388443E-03,   1.44335501E-04, ]
- [  2.15836233E-03,  -4.98838354E-02,  -1.43924601E-02, ]
- [  1.21599153E-02,   5.40803166E-03,   6.71655674E-03, ]
- [ -1.00261409E-02,   1.76331500E-03,   5.01591159E-03, ]
force_length_stats: {min:   8.56709878E-04, max:   5.19634340E-02, mean:   1.13082292E-02, }
...

 Integrated electronic density in atomic spheres:
 ------------------------------------------------
 Atom  Sphere_radius  Integrated_density
    1        2.00000          4.69813930
    2        2.00000          4.71614516
    3        2.00000          4.69727087
    4        2.00000          4.72797066
    5        2.00000          4.83759114
    6        2.00000          4.72742542
    7        2.00000          2.05213768
    8        2.00000          2.06060523
    9        2.00000          2.05306478
   10        2.00000          2.06199035
   11        2.00000          2.06313349
   12        2.00000          5.78816156
   13        2.00000          2.75941896
   14        2.00000          2.74414495
================================================================================

 ----iterations are completed or convergence reached----

 Mean square residual over all n,k,spin=   15.855E-09; max=  48.950E-08
 reduced coordinates (array xred) for   14 atoms
      -0.034208544241     -0.027417593433      0.000000000000
       0.006640497124     -0.043334125526      0.000000000000
       0.040845891821     -0.015916532093      0.000000000000
       0.034208512745      0.027417593433      0.000000000000
      -0.006640528619      0.043330975983      0.000000000000
      -0.040849041365      0.015913414045      0.000000000000
      -0.060871349618     -0.048769134946      0.000000000000
       0.011810157520     -0.077099025095      0.000000000000
       0.072674893097     -0.028314457387      0.000000000000
       0.060861239584      0.048781701624      0.000000000000
      -0.072686168462      0.028290520858      0.000000000000
      -0.013495824597      0.087877203253      0.000000000000
       0.010190882816      0.105215659666      0.010915340769
      -0.041799605032      0.096696333974      0.010518844761
 rms dE/dt=  6.1042E-01; max dE/dt=  2.9930E+00; dE/dt below (all hartree)
    1      -0.346899600753     -0.612186815731      0.039861511377
    2       0.006834161921     -0.255920748985     -0.000721565486
    3       0.490020599484     -0.449375804740      0.035928138182
    4      -0.056870736634      0.446724297768      0.045967596263
    5       0.221078165650     -1.751635841514     -0.297575240995
    6      -0.089997689576      0.426946808830      0.048640277396
    7       0.080044606045     -0.038586215150     -0.005633725734
    8      -0.016316139451     -0.048510714206     -0.004863169130
    9      -0.057453590732     -0.040329837203     -0.005534170521
   10      -0.062464778891     -0.128106402382     -0.006988441333
   11       0.089445652975     -0.111839567128     -0.008658071491
   12      -0.129511517893      2.993023623700      0.863549663886
   13      -0.729604696828     -0.324488400931     -0.402991345634
   14       0.601558675217     -0.105805401066     -0.300952636525

 cartesian coordinates (angstrom) at end:
    1     -1.08614291707008    -0.87052593353301     0.00000000000000
    2      0.21083998390180    -1.37588589494742     0.00000000000000
    3      1.29688290097952    -0.50535996141441     0.00000000000000
    4      1.08614191707015     0.87052593353301     0.00000000000000
    5     -0.21084098390173     1.37578589495506     0.00000000000000
    6     -1.29698290097188     0.50526096142197     0.00000000000000
    7     -1.93270385243288    -1.54845088177163     0.00000000000000
    8      0.37497997136927    -2.44794281309301     0.00000000000000
    9      2.30747382381819    -0.89900193135879     0.00000000000000
   10      1.93238285245739     1.54884988174116     0.00000000000000
   11     -2.30783182379086     0.89824193141682     0.00000000000000
   12     -0.42850096728280     2.79015678696405     0.00000000000000
   13      0.32356697529479     3.34066374493137     0.34656897353853
   14     -1.32716389866748     3.07016976558431     0.33397997449973

 cartesian forces (hartree/bohr) at end:
    1      0.00578149704889     0.01020300523988    -0.00066432421313
    2     -0.00011406566234     0.00426523746077     0.00001206040125
    3     -0.00816717295505     0.00748948839002    -0.00059876799320
    4      0.00094768264691    -0.00744551331844    -0.00076609229456
    5     -0.00368479905781     0.02919382233627     0.00495962165974
    6      0.00149979852929    -0.00711588850280    -0.00081063698010
    7     -0.00133423973107     0.00064299523019     0.00009392973873
    8      0.00027177269387     0.00080840354780     0.00008108712867
    9      0.00095739688188     0.00067205559774     0.00009227048518
   10      0.00104091668453     0.00213499835072     0.00011650833205
   11     -0.00149092384657     0.00186388442983     0.00014433550134
   12      0.00215836233457    -0.04988383541731    -0.01439246008827
   13      0.01215991531682     0.00540803165987     0.00671655673706
   14     -0.01002614088393     0.00176331499546     0.00501591158525
 frms,max,avg= 1.0173664E-02 4.9883835E-02   1.630E-07  1.084E-07 -3.431E-08 h/b

 cartesian forces (eV/Angstrom) at end:
    1      0.29729650659384     0.52465958019565    -0.03416092166766
    2     -0.00586549169680     0.21932731023777     0.00062017071530
    3     -0.41997288379627     0.38512494526914    -0.03078988558383
    4      0.04873179695552    -0.38286365635930    -0.03939404638208
    5     -0.18947997000151     1.50120657699808     0.25503397839675
    6      0.07712273474880    -0.36591366825997    -0.04168462601664
    7     -0.06860935976488     0.03306414135899     0.00483006096062
    8      0.01397511263827     0.04156977831973     0.00416966745438
    9      0.04923132296019     0.03455848541573     0.00474473871946
   10      0.05352608352979     0.10978602010601     0.00599109881293
   11     -0.07666638025329     0.09584478293367     0.00742202927098
   12      0.11098744436002    -2.56512973709958    -0.74008999215074
   13      0.62528793383372     0.27809214575952     0.34537920496742
   14     -0.51556485010738     0.09067329512454     0.25792852250311
 frms,max,avg= 5.2315081E-01 2.5651297E+00   8.380E-06  5.572E-06 -1.764E-06 e/A
 length scales= 60.000000000000 60.000000000000 60.000000000000 bohr
              = 31.750632515400 31.750632515400 31.750632515400 angstroms
 prteigrs : about to open file final_calculationo_EIG
 Fermi (or HOMO) energy (hartree) =  -0.18439   Average Vxc (hartree)=  -0.00224
 Eigenvalues (hartree) for nkpt=   1  k points:
 kpt#   1, nband= 50, wtk=  1.00000, kpt=  0.0000  0.0000  0.0000 (reduced coord)
  -0.83625   -0.76262   -0.67412   -0.65773   -0.55285   -0.53732   -0.47339   -0.46102
  -0.42212   -0.38474   -0.38298   -0.37111   -0.34317   -0.31019   -0.29969   -0.27357
  -0.22729   -0.18439   -0.04059   -0.02767   -0.02125   -0.00873   -0.00604   -0.00409
  -0.00119   -0.00054    0.00057    0.00072    0.00300    0.00459    0.00533    0.00578
   0.00654    0.00695    0.00742    0.00824    0.00882    0.00919    0.00968    0.01170
   0.01276    0.01293    0.01331    0.01370    0.01413    0.01467    0.01527    0.01539
   0.01576    0.01589

--- !EnergyTerms
iteration_state     : {dtset: 1, }
comment             : Components of total free energy in Hartree
kinetic             :  3.78629995108602E+01
hartree             :  1.50034227424373E+02
xc                  : -1.55237357431637E+01
Ewald energy        :  1.13829772084008E+02
psp_core            : -3.21231355123521E-05
local_psp           : -3.37495740622029E+02
non_local_psp       :  3.41437666067485E+00
total_energy        : -4.78781328084127E+01
total_energy_eV     : -1.30283025034978E+03
band_energy         : -1.63090870459720E+01
...


 Cartesian components of stress tensor (hartree/bohr^3)
  sigma(1 1)=  1.97089715E-05  sigma(3 2)= -4.45337637E-08
  sigma(2 2)=  2.00919742E-05  sigma(3 1)= -5.38369106E-09
  sigma(3 3)=  2.01693511E-05  sigma(2 1)= -6.29917973E-08

-Cartesian components of stress tensor (GPa)         [Pressure= -5.8813E-01 GPa]
- sigma(1 1)=  5.79857863E-01  sigma(3 2)= -1.31022834E-03
- sigma(2 2)=  5.91126191E-01  sigma(3 1)= -1.58393633E-04
- sigma(3 3)=  5.93402695E-01  sigma(2 1)= -1.85328235E-03

== END DATASET(S) ==============================================================
================================================================================
  
 -outvars: echo values of variables after computation  --------
            acell      6.0000000000E+01  6.0000000000E+01  6.0000000000E+01 Bohr
              amu      1.20110000E+01  1.00794000E+00  1.40067400E+01
      chksymbreak           0
      chksymtnons           0
           diemac      2.00000000E+00
             ecut      4.00000000E+02 Hartree
           etotal     -4.7878132808E+01
            fcart      5.7814970489E-03  1.0203005240E-02 -6.6432421313E-04
                      -1.1406566234E-04  4.2652374608E-03  1.2060401252E-05
                      -8.1671729550E-03  7.4894883900E-03 -5.9876799320E-04
                       9.4768264691E-04 -7.4455133184E-03 -7.6609229456E-04
                      -3.6847990578E-03  2.9193822336E-02  4.9596216597E-03
                       1.4997985293E-03 -7.1158885028E-03 -8.1063698010E-04
                      -1.3342397311E-03  6.4299523019E-04  9.3929738730E-05
                       2.7177269387E-04  8.0840354780E-04  8.1087128667E-05
                       9.5739688188E-04  6.7205559774E-04  9.2270485175E-05
                       1.0409166845E-03  2.1349983507E-03  1.1650833205E-04
                      -1.4909238466E-03  1.8638844298E-03  1.4433550134E-04
                       2.1583623346E-03 -4.9883835417E-02 -1.4392460088E-02
                       1.2159915317E-02  5.4080316599E-03  6.7165567371E-03
                      -1.0026140884E-02  1.7633149955E-03  5.0159115852E-03
-          fftalg         312
         icutcoul           0
           istwfk        2
              ixc          11
           kptopt           0
P           mkmem           1
            natom          14
            nband          50
            ngfft        1125    1125    1125
             nkpt           1
            nstep         100
             nsym           1
           ntypat           3
              occ      2.000000  2.000000  2.000000  2.000000  2.000000  2.000000
                       2.000000  2.000000  2.000000  2.000000  2.000000  2.000000
                       2.000000  2.000000  2.000000  2.000000  2.000000  2.000000
                       0.000000  0.000000  0.000000  0.000000  0.000000  0.000000
                       0.000000  0.000000  0.000000  0.000000  0.000000  0.000000
                       0.000000  0.000000  0.000000  0.000000  0.000000  0.000000
                       0.000000  0.000000  0.000000  0.000000  0.000000  0.000000
                       0.000000  0.000000  0.000000  0.000000  0.000000  0.000000
                       0.000000  0.000000
          spgroup           1
           strten      1.9708971481E-05  2.0091974221E-05  2.0169351058E-05
                      -4.4533763725E-08 -5.3836910552E-09 -6.2991797256E-08
           toldfe      1.00000000E-10 Hartree
            typat      1  1  1  1  1  1  2  2  2  2  2  3  2  2
           xangst     -1.0861429171E+00 -8.7052593353E-01  0.0000000000E+00
                       2.1083998390E-01 -1.3758858949E+00  0.0000000000E+00
                       1.2968829010E+00 -5.0535996141E-01  0.0000000000E+00
                       1.0861419171E+00  8.7052593353E-01  0.0000000000E+00
                      -2.1084098390E-01  1.3757858950E+00  0.0000000000E+00
                      -1.2969829010E+00  5.0526096142E-01  0.0000000000E+00
                      -1.9327038524E+00 -1.5484508818E+00  0.0000000000E+00
                       3.7497997137E-01 -2.4479428131E+00  0.0000000000E+00
                       2.3074738238E+00 -8.9900193136E-01  0.0000000000E+00
                       1.9323828525E+00  1.5488498817E+00  0.0000000000E+00
                      -2.3078318238E+00  8.9824193142E-01  0.0000000000E+00
                      -4.2850096728E-01  2.7901567870E+00  0.0000000000E+00
                       3.2356697529E-01  3.3406637449E+00  3.4656897354E-01
                      -1.3271638987E+00  3.0701697656E+00  3.3397997450E-01
            xcart     -2.0525126544E+00 -1.6450556060E+00  0.0000000000E+00
                       3.9842982744E-01 -2.6000475316E+00  0.0000000000E+00
                       2.4507535093E+00 -9.5499192560E-01  0.0000000000E+00
                       2.0525107647E+00  1.6450556060E+00  0.0000000000E+00
                      -3.9843171716E-01  2.5998585590E+00  0.0000000000E+00
                      -2.4509424819E+00  9.5480484273E-01  0.0000000000E+00
                      -3.6522809771E+00 -2.9261480968E+00  0.0000000000E+00
                       7.0860945121E-01 -4.6259415057E+00  0.0000000000E+00
                       4.3604935858E+00 -1.6988674432E+00  0.0000000000E+00
                       3.6516743750E+00  2.9269020974E+00  0.0000000000E+00
                      -4.3611701077E+00  1.6974312515E+00  0.0000000000E+00
                      -8.0974947584E-01  5.2726321952E+00  0.0000000000E+00
                       6.1145296895E-01  6.3129395800E+00  6.5492044614E-01
                      -2.5079763019E+00  5.8017800384E+00  6.3113068567E-01
             xred     -3.4208544241E-02 -2.7417593433E-02  0.0000000000E+00
                       6.6404971239E-03 -4.3334125526E-02  0.0000000000E+00
                       4.0845891821E-02 -1.5916532093E-02  0.0000000000E+00
                       3.4208512745E-02  2.7417593433E-02  0.0000000000E+00
                      -6.6405286194E-03  4.3330975983E-02  0.0000000000E+00
                      -4.0849041365E-02  1.5913414045E-02  0.0000000000E+00
                      -6.0871349618E-02 -4.8769134946E-02  0.0000000000E+00
                       1.1810157520E-02 -7.7099025095E-02  0.0000000000E+00
                       7.2674893097E-02 -2.8314457387E-02  0.0000000000E+00
                       6.0861239584E-02  4.8781701624E-02  0.0000000000E+00
                      -7.2686168462E-02  2.8290520858E-02  0.0000000000E+00
                      -1.3495824597E-02  8.7877203253E-02  0.0000000000E+00
                       1.0190882816E-02  1.0521565967E-01  1.0915340769E-02
                      -4.1799605032E-02  9.6696333974E-02  1.0518844761E-02
            znucl        6.00000    1.00000    7.00000

================================================================================


- Timing analysis has been suppressed with timopt=0



================================================================================

 Suggested references for the acknowledgment of ABINIT usage.

 The users of ABINIT have little formal obligations with respect to the ABINIT group
 (those specified in the GNU General Public License, http://www.gnu.org/copyleft/gpl.txt).
 However, it is common practice in the scientific literature,
 to acknowledge the efforts of people that have made the research possible.
 In this spirit, please find below suggested citations of work written by ABINIT developers,
 corresponding to implementations inside of ABINIT that you have used in the present run.
 Note also that it will be of great value to readers of publications presenting these results,
 to read papers enabling them to understand the theoretical formalism and details
 of the ABINIT implementation.
 For information on why they are suggested, see also https://docs.abinit.org/theory/acknowledgments.
-
- [1] The Abinit project: Impact, environment and recent developments.
- Computer Phys. Comm. 248, 107042 (2020).
- X.Gonze, B. Amadon, G. Antonius, F.Arnardi, L.Baguet, J.-M.Beuken,
- J.Bieder, F.Bottin, J.Bouchet, E.Bousquet, N.Brouwer, F.Bruneval,
- G.Brunin, T.Cavignac, J.-B. Charraud, Wei Chen, M.Cote, S.Cottenier,
- J.Denier, G.Geneste, Ph.Ghosez, M.Giantomassi, Y.Gillet, O.Gingras,
- D.R.Hamann, G.Hautier, Xu He, N.Helbig, N.Holzwarth, Y.Jia, F.Jollet,
- W.Lafargue-Dit-Hauret, K.Lejaeghere, M.A.L.Marques, A.Martin, C.Martins,
- H.P.C. Miranda, F.Naccarato, K. Persson, G.Petretto, V.Planes, Y.Pouillon,
- S.Prokhorenko, F.Ricci, G.-M.Rignanese, A.H.Romero, M.M.Schmitt, M.Torrent,
- M.J.van Setten, B.Van Troeye, M.J.Verstraete, G.Zerah and J.W.Zwanzig
- Comment: the fifth generic paper describing the ABINIT project.
- Note that a version of this paper, that is not formatted for Computer Phys. Comm. 
- is available at https://www.abinit.org/sites/default/files/ABINIT20.pdf .
- The licence allows the authors to put it on the Web.
- DOI and bibtex: see https://docs.abinit.org/theory/bibliography/#gonze2020
-
- [2] ABINIT: Overview, and focus on selected capabilities
- J. Chem. Phys. 152, 124102 (2020).
- A. Romero, D.C. Allan, B. Amadon, G. Antonius, T. Applencourt, L.Baguet,
- J.Bieder, F.Bottin, J.Bouchet, E.Bousquet, F.Bruneval,
- G.Brunin, D.Caliste, M.Cote,
- J.Denier, C. Dreyer, Ph.Ghosez, M.Giantomassi, Y.Gillet, O.Gingras,
- D.R.Hamann, G.Hautier, F.Jollet, G. Jomard,
- A.Martin, 
- H.P.C. Miranda, F.Naccarato, G.Petretto, N.A. Pike, V.Planes,
- S.Prokhorenko, T. Rangel, F.Ricci, G.-M.Rignanese, M.Royo, M.Stengel, M.Torrent,
- M.J.van Setten, B.Van Troeye, M.J.Verstraete, J.Wiktor, J.W.Zwanziger, and X.Gonze.
- Comment: a global overview of ABINIT, with focus on selected capabilities .
- Note that a version of this paper, that is not formatted for J. Chem. Phys 
- is available at https://www.abinit.org/sites/default/files/ABINIT20_JPC.pdf .
- The licence allows the authors to put it on the Web.
- DOI and bibtex: see https://docs.abinit.org/theory/bibliography/#romero2020
-
- [3] Recent developments in the ABINIT software package.
- Computer Phys. Comm. 205, 106 (2016).
- X.Gonze, F.Jollet, F.Abreu Araujo, D.Adams, B.Amadon, T.Applencourt,
- C.Audouze, J.-M.Beuken, J.Bieder, A.Bokhanchuk, E.Bousquet, F.Bruneval
- D.Caliste, M.Cote, F.Dahm, F.Da Pieve, M.Delaveau, M.Di Gennaro,
- B.Dorado, C.Espejo, G.Geneste, L.Genovese, A.Gerossier, M.Giantomassi,
- Y.Gillet, D.R.Hamann, L.He, G.Jomard, J.Laflamme Janssen, S.Le Roux,
- A.Levitt, A.Lherbier, F.Liu, I.Lukacevic, A.Martin, C.Martins,
- M.J.T.Oliveira, S.Ponce, Y.Pouillon, T.Rangel, G.-M.Rignanese,
- A.H.Romero, B.Rousseau, O.Rubel, A.A.Shukri, M.Stankovski, M.Torrent,
- M.J.Van Setten, B.Van Troeye, M.J.Verstraete, D.Waroquier, J.Wiktor,
- B.Xu, A.Zhou, J.W.Zwanziger.
- Comment: the fourth generic paper describing the ABINIT project.
- Note that a version of this paper, that is not formatted for Computer Phys. Comm. 
- is available at https://www.abinit.org/sites/default/files/ABINIT16.pdf .
- The licence allows the authors to put it on the Web.
- DOI and bibtex: see https://docs.abinit.org/theory/bibliography/#gonze2016
-
- And optionally:
-
- [4] ABINIT: First-principles approach of materials and nanosystem properties.
- Computer Phys. Comm. 180, 2582-2615 (2009).
- X. Gonze, B. Amadon, P.-M. Anglade, J.-M. Beuken, F. Bottin, P. Boulanger, F. Bruneval,
- D. Caliste, R. Caracas, M. Cote, T. Deutsch, L. Genovese, Ph. Ghosez, M. Giantomassi
- S. Goedecker, D.R. Hamann, P. Hermet, F. Jollet, G. Jomard, S. Leroux, M. Mancini, S. Mazevet,
- M.J.T. Oliveira, G. Onida, Y. Pouillon, T. Rangel, G.-M. Rignanese, D. Sangalli, R. Shaltaf,
- M. Torrent, M.J. Verstraete, G. Zerah, J.W. Zwanziger
- Comment: the third generic paper describing the ABINIT project.
- Note that a version of this paper, that is not formatted for Computer Phys. Comm. 
- is available at https://www.abinit.org/sites/default/files/ABINIT_CPC_v10.pdf .
- The licence allows the authors to put it on the Web.
- DOI and bibtex: see https://docs.abinit.org/theory/bibliography/#gonze2009
-
- Proc.   0 individual time (sec): cpu=    1654487.8  wall=      93692.0

================================================================================

 Calculation completed.
.Delivered   0 WARNINGs and   7 COMMENTs to log file.
+Overall time at end (sec) : cpu=    1654487.8  wall=      93692.0
